LAMMPS (17 Nov 2016)
# Input file for nanocutting of Cubic SiC with a diamond tool
# Chris Fung, June 2013 (last update: Mar 219)

# ------------------------ GPU SETTINGS ----------------------------

#package cuda gpu/node 1 0
#package omp 2 force/neigh

# ------------------------ INITIALIZATION ----------------------------
units 		metal
dimension	3
boundary	s	s	p
atom_style	atomic

variable a equal 4.3674
variable b equal 3.5716
variable c equal $a/$b
variable c equal 4.3674/$b
variable c equal 4.3674/3.5716
variable dx equal 70*$c
variable dx equal 70*1.22281330496136
variable dy equal 10*$c
variable dy equal 10*1.22281330496136
variable dx1 equal 11+${dx}
variable dx1 equal 11+85.5969313472952
variable dy1 equal ${dy}+11
variable dy1 equal 12.2281330496136+11
variable rx equal ${dx}+4
variable rx equal 85.5969313472952+4
variable ry equal ${dy}+4
variable ry equal 12.2281330496136+4
variable bx1 equal ${dx1}-1
variable bx1 equal 96.5969313472952-1
variable bx2 equal ${bx1}-1
variable bx2 equal 95.5969313472952-1
variable by1 equal ${dy1}-1
variable by1 equal 23.2281330496136-1
variable by2 equal ${by1}-1
variable by2 equal 22.2281330496136-1

lattice fcc $a
lattice fcc 4.3674
Lattice spacing in x,y,z = 4.3674 4.3674 4.3674
region		whole block 0 99 0 27 0 18
create_box	3 whole
Created orthogonal box = (0 0 0) to (432.373 117.92 78.6132)
  8 by 2 by 2 MPI processor grid

# ----------------------- ATOM DEFINITION ----------------------------

# create C atoms for diamond tool
lattice diamond $b orient x 1 0 0 orient y 0 1 0 origin 0 0 0.4
lattice diamond 3.5716 orient x 1 0 0 orient y 0 1 0 origin 0 0 0.4
Lattice spacing in x,y,z = 3.5716 3.5716 3.5716

# define the shape, dimension, and initial position of cutting tool
region cut_toolB block ${dx} ${dx1} ${dy} ${dy1} INF INF
region cut_toolB block 85.5969313472952 ${dx1} ${dy} ${dy1} INF INF
region cut_toolB block 85.5969313472952 96.5969313472952 ${dy} ${dy1} INF INF
region cut_toolB block 85.5969313472952 96.5969313472952 12.2281330496136 ${dy1} INF INF
region cut_toolB block 85.5969313472952 96.5969313472952 12.2281330496136 23.2281330496136 INF INF
region cut_toolR cylinder z ${rx} ${ry}  4 INF INF
region cut_toolR cylinder z 89.5969313472952 ${ry}  4 INF INF
region cut_toolR cylinder z 89.5969313472952 16.2281330496136  4 INF INF
region trimbox1 block ${dx} ${rx} ${dy} ${ry} INF INF side out
region trimbox1 block 85.5969313472952 ${rx} ${dy} ${ry} INF INF side out
region trimbox1 block 85.5969313472952 89.5969313472952 ${dy} ${ry} INF INF side out
region trimbox1 block 85.5969313472952 89.5969313472952 12.2281330496136 ${ry} INF INF side out
region trimbox1 block 85.5969313472952 89.5969313472952 12.2281330496136 16.2281330496136 INF INF side out
region cut_toolTr intersect 2 cut_toolB trimbox1
region cut_tool union 2 cut_toolTr cut_toolR

region trimbox2 prism 4.35 15.65 0 1 INF INF 6 0 0

#define boundaries of cutting tool
region ctTop block ${dx} ${dx1} ${by1} ${dy1} INF INF
region ctTop block 85.5969313472952 ${dx1} ${by1} ${dy1} INF INF
region ctTop block 85.5969313472952 96.5969313472952 ${by1} ${dy1} INF INF
region ctTop block 85.5969313472952 96.5969313472952 22.2281330496136 ${dy1} INF INF
region ctTop block 85.5969313472952 96.5969313472952 22.2281330496136 23.2281330496136 INF INF
region ctxEnd block ${bx1} ${dx1} ${dy} ${dy1} INF INF
region ctxEnd block 95.5969313472952 ${dx1} ${dy} ${dy1} INF INF
region ctxEnd block 95.5969313472952 96.5969313472952 ${dy} ${dy1} INF INF
region ctxEnd block 95.5969313472952 96.5969313472952 12.2281330496136 ${dy1} INF INF
region ctxEnd block 95.5969313472952 96.5969313472952 12.2281330496136 23.2281330496136 INF INF
region ctTSbottom block ${dx} ${bx1} ${by2} ${by1} INF INF
region ctTSbottom block 85.5969313472952 ${bx1} ${by2} ${by1} INF INF
region ctTSbottom block 85.5969313472952 95.5969313472952 ${by2} ${by1} INF INF
region ctTSbottom block 85.5969313472952 95.5969313472952 21.2281330496136 ${by1} INF INF
region ctTSbottom block 85.5969313472952 95.5969313472952 21.2281330496136 22.2281330496136 INF INF
region ctTSxEnd block ${bx2} ${bx1} ${dy} ${by1} INF INF
region ctTSxEnd block 94.5969313472952 ${bx1} ${dy} ${by1} INF INF
region ctTSxEnd block 94.5969313472952 95.5969313472952 ${dy} ${by1} INF INF
region ctTSxEnd block 94.5969313472952 95.5969313472952 12.2281330496136 ${by1} INF INF
region ctTSxEnd block 94.5969313472952 95.5969313472952 12.2281330496136 22.2281330496136 INF INF
region ctbound union 2 ctTop ctxEnd
region ctTSbound union 2 ctTSbottom ctTSxEnd

# create C atoms of diamond tool and make a nano-groove on the flank face
create_atoms 1 region cut_tool
Created 20658 atoms


delete_atoms region trimbox2
Deleted 0 atoms, new total = 20658


group gpCTall region  cut_tool
20658 atoms in group gpCTall
group gpCTbd  region  ctbound
3696 atoms in group gpCTbd
group gpCTtsbd  region  ctTSbound
3344 atoms in group gpCTtsbd
group gpCTmob subtract gpCTall gpCTbd gpCTtsbd
13618 atoms in group gpCTmob
group gpCTeq subtract gpCTall gpCTbd
16962 atoms in group gpCTeq



print "diamond tool created"
diamond tool created
#------------------------------------------------------------

# define the lattice of cubic SiC (two atom types form two interpenetrating face-centered cubic lattices)

# define the shape and dimension of the workpiece
lattice fcc $a origin 0 0 0 orient x 1 0 0 orient y 0 1 0
lattice fcc 4.3674 origin 0 0 0 orient x 1 0 0 orient y 0 1 0
Lattice spacing in x,y,z = 4.3674 4.3674 4.3674

# define the boundaries for workpiece
region workpiece block 0 65 0 15 INF INF
region wpbottom block 0 65 0 1 INF INF
region wpxEnd block 0 1 0 15 INF INF
region wpTSbottom block 1 65 1 2 INF INF
region wpTSxEnd block 1 2 1 15 INF INF
region wpbound union 2 wpbottom wpxEnd
region wpTSbound union 2 wpTSbottom wpTSxEnd

# create Si atoms for SiC workpiece
create_atoms	2 region workpiece
Created 73098 atoms

# offset origin for 1/4 unit cell for C atoms
lattice fcc $a origin 0.25 0.25 0.25 orient x 1 0 0 orient y 0 1 0
lattice fcc 4.3674 origin 0.25 0.25 0.25 orient x 1 0 0 orient y 0 1 0
Lattice spacing in x,y,z = 4.3674 4.3674 4.3674
create_atoms	3 region workpiece
Created 70200 atoms


# groups atoms
group gpWPall region workpiece
143298 atoms in group gpWPall
group gpWPbd region wpbound
14274 atoms in group gpWPbd
group gpWPtsbd region wpTSbound
13914 atoms in group gpWPtsbd
group gpWPmob subtract gpWPall gpWPbd gpWPtsbd
117936 atoms in group gpWPmob



print "Workpiece created"
Workpiece created

#-------------------------------------------------


# define the mass of atoms
mass 1 12 #.0107 # C (g/mol)
mass 2 28 #.0855 # Si (g/mol)
mass 3 12 #.0107 # C (g/mol)

#group Si type 2
#group C type 1 3

lattice fcc $a origin 0 0 0
lattice fcc 4.3674 origin 0 0 0
Lattice spacing in x,y,z = 4.3674 4.3674 4.3674


# ------------------------ FORCE FIELDS ------------------------------

pair_style	tersoff
pair_coeff	* * SiC_Erhart-Albe.tersoff C Si C

# ------------------------- SETTINGS ---------------------------------
######################################
# EQUILIBRATION

# set temperature at 300 K

group gpCTeq union gpCTmob gpCTtsbd
16962 atoms in group gpCTeq
group gpWPeq union gpWPmob gpWPtsbd
131850 atoms in group gpWPeq
group gpAlleq union gpCTeq gpWPeq
148812 atoms in group gpAlleq


compute myCTtemp gpCTeq temp
compute myWPtemp gpWPeq temp
velocity gpAlleq create 300 102456 dist uniform

fix 1 gpCTeq nvt temp 300.0 300.0 0.1 # aniso 1.0 1.0 0.5
fix_modify 1 temp myCTtemp
WARNING: Temperature for fix modify is not for group all (../fix_nh.cpp:1389)
fix 2 gpWPeq nvt temp 300.0 300.0 0.1 # aniso 1.0 1.0 0.5
fix_modify 2 temp myWPtemp
WARNING: Temperature for fix modify is not for group all (../fix_nh.cpp:1389)

reset_timestep	0
timestep 0.001 # set 1 femtosecond per step

fix 3 gpWPbd move linear 0 0 0
fix 4 gpCTbd move linear 0 0 0

fix 10 all balance 100 0.9 shift xy 10 1.05 out tmp.balance
fix 13 all property/atom mol ghost yes

set group gpCTmob mol 1
  13618 settings made for mol
set group gpCTtsbd mol 2
  3344 settings made for mol
set group gpCTbd mol 3
  3696 settings made for mol

set group gpWPmob mol 4
  117936 settings made for mol
set group gpWPtsbd mol 5
  13914 settings made for mol
set group gpWPbd mol 6
  14274 settings made for mol


# Display thermo

thermo 	100
thermo_style custom step temp c_myCTtemp c_myWPtemp press etotal

#compute		eCSP all centro/atom fcc
#compute atomke all ke/atom
dump	 e0dumpCSP all custom 500 dump.cutsic_eq.*.lammpstrj id type mol element x y z vx vy vz # c_atomke
dump_modify e0dumpCSP element C Si C

# backup initial state and every 1000 steps
#write_restart cut_sic_eq.restart.0000.*.mpiio
#restart 1000 cut_sic_eq.restart.*.mpiio



# Run for at least 10 picosecond
print "start run equilibration"
start run equilibration


run 100000
WARNING: One or more atoms are time integrated more than once (../modify.cpp:271)
Neighbor list info ...
  1 neighbor list requests
  update every 1 steps, delay 10 steps, check yes
  max neighbors/atom: 2000, page size: 100000
  master list distance cutoff = 4.96
  ghost atom cutoff = 4.96
  binsize = 2.48 -> bins = 175 48 32
Memory usage per processor = 7.07908 Mbytes
Step Temp c_myCTtemp c_myWPtemp Press TotEng 
       0    272.28996    300.26716    299.96791   -11111.792   -1035838.8 
     100    143.53602    217.25354    150.54047   -5699.8852   -1035679.5 
     200    172.87552    246.09291    183.31443   -3921.8508   -1035303.8 
     300    195.49854    241.04746    212.09533   -3114.3685   -1034871.5 
     400    202.50537    247.88932    219.92822   -3137.5619   -1034405.5 
     500    205.82111    270.12717    221.19071   -2910.2123   -1033919.5 
     600    223.59112    293.79649    240.24301   -2242.9849   -1033432.3 
     700    241.29377    294.20169    262.20423   -1679.1521   -1032958.9 
     800    251.52982    299.30214    274.27669   -1203.8736   -1032517.9 
     900    256.22311    304.28013    279.47246   -761.85984   -1032134.9 
    1000    268.24701    305.27987    294.29564   -364.88554   -1031833.9 
    1100    276.69122    303.57899    305.01487    259.51962   -1031618.2 
    1200    276.35413    299.22143    305.15625   -608.91495   -1031515.9 
    1300    274.59683    298.87483    303.01562   -1141.6697   -1031559.8 
    1400    271.19021    298.84122     298.7838   -2147.2849   -1031683.7 
    1500    270.48593    305.60422    297.03804   -3055.3713   -1031767.3 
    1600    271.40729     307.5368    297.93514    -3290.196   -1031753.8 
    1700    271.10385    293.99792    299.29945   -3807.9083   -1031662.7 
    1800     272.4414     289.5036    301.54085   -3815.6294   -1031585.1 
    1900    274.99673    295.95505     303.8885   -4341.9732   -1031580.7 
    2000    272.41673    306.31025    299.34816   -4108.5394   -1031645.7 
    2100    270.33522    302.63054    297.23316   -4405.5319   -1031712.5 
    2200    270.51923    292.93582     298.7091   -4721.3122   -1031721.6 
    2300    272.08069    300.79971    299.63918   -4670.6711   -1031668.5 
    2400    274.30801     300.6947    302.42237   -3259.8852   -1031611.5 
    2500    273.54432    291.45798    302.66092   -2558.5278   -1031615.1 
    2600    271.45509    296.17655    299.45596   -1890.9975     -1031679 
    2700    270.80073     302.0104     297.8918   -1554.7534   -1031745.9 
    2800    271.15159    305.70269    297.85312   -1148.9035   -1031762.8 
    2900    272.27462    300.91536    299.86545   -876.79008   -1031717.3 
    3000    272.62244    296.73754    300.83539   -581.27289   -1031654.4 
    3100     273.8404    298.74902    302.09119   -464.07709   -1031634.6 
    3200    273.82697    303.34154     301.4837   -86.622689   -1031674.5 
    3300    270.81152    301.81425    297.93045   -149.44268   -1031734.8 
    3400    270.99376    302.83116    298.02625   -22.317554   -1031763.7 
    3500    270.99036    302.40024    298.07745   -1409.5197     -1031740 
    3600    272.75935    302.29402    300.29087   -1746.0782   -1031682.6 
    3700    274.58696    299.07731    302.97731   -2214.0942   -1031639.9 
    3800    272.63837    296.75624     300.8528   -2584.3095   -1031645.1 
    3900    271.94549    301.49358    299.38179   -3169.1083   -1031687.2 
    4000    271.69533    301.89787    299.01871   -3481.4209   -1031720.9 
    4100     270.5626    301.05431    297.71867   -4000.7106   -1031712.1 
    4200    272.43993    299.71553    300.22536   -4250.8598   -1031664.1 
    4300    273.52959    297.16305    301.90871   -4297.1385   -1031620.1 
    4400    273.41294    299.60122    301.45001    -4374.016   -1031616.4 
    4500    272.47552    301.02491    300.10118   -4486.4232   -1031655.9 
    4600    271.83089    304.51416    298.85073   -3660.1926   -1031698.4 
    4700    271.32051    301.17456    298.64567    -3239.065   -1031714.4 
    4800    271.92689    296.88467    299.95155     -2174.11   -1031699.8 
    4900    273.57261    297.89561    301.86796   -1927.2514   -1031676.5 
    5000       272.39    296.72033    300.54857   -1545.8937   -1031671.8 
    5100    273.24126    299.23218      301.284   -1279.1298   -1031693.2 
    5200    271.50173    298.45173    299.22128    -1038.065   -1031722.5 
    5300    271.53328     301.4427    298.87576   -552.44305   -1031731.8 
    5400    271.86462    299.86222    299.49109   -392.41228   -1031713.6 
    5500    273.48141    298.82831    301.63458    -304.7382   -1031686.2 
    5600    272.92997    299.76089     300.8289   -19.001451   -1031675.9 
    5700    272.09863    297.97555    300.02478   -500.30292   -1031692.6 
    5800    272.11456    302.64266    299.44422   -1314.0671   -1031718.7 
    5900    271.42418     300.4634    298.86606    -2154.903   -1031723.2 
    6000    271.53137    298.72627    299.22282   -2510.4675     -1031696 
    6100    272.38369    298.94948    300.25397   -2761.6382   -1031661.1 
    6200    273.60456    301.26325    301.47449   -3293.0224   -1031648.2 
    6300    272.31993    299.22299    300.13949   -3604.7695   -1031667.5 
    6400    271.95157    299.98909    299.58289    -3802.855   -1031695.5 
    6500    271.70878    301.11615    299.13599   -4268.1329   -1031700.4 
    6600    271.98803    299.09371    299.74341    -4473.612   -1031675.1 
    6700    272.92246    298.70005    300.95602   -4396.1949     -1031640 
    6800    272.83565    298.90939    300.82114   -4398.2531   -1031625.2 
    6900    272.26517    300.36028     299.9251   -3145.9823   -1031645.7 
    7000     272.2995    300.79238    299.91221   -2747.1535   -1031693.9 
    7100    270.74338    300.74623     297.9831   -2238.4186   -1031733.1 
    7200    271.60221    301.60137    298.94106    -1725.103   -1031732.7 
    7300    272.16298    299.70549    299.88226   -1565.6033   -1031696.4 
    7400     273.3975    298.22738    301.60755   -1122.3784   -1031662.4 
    7500    272.77796    303.21084    300.19606   -881.57274   -1031664.5 
    7600    272.41353    300.47834    300.09441   -643.68063   -1031699.1 
    7700    271.33129    300.71761    298.71785   -428.07608   -1031734.4 
    7800    271.41833    299.08791    299.03573   -396.62317   -1031740.6 
    7900    272.44042     298.9325     300.3267   -313.81983   -1031712.7 
    8000    272.95491     296.1208    301.32817   -925.10206     -1031679 
    8100    273.04603    300.65324    300.85842    -1559.805     -1031669 
    8200     272.1189    301.63799    299.57885   -2358.6024   -1031688.7 
    8300    272.07499    300.77519    299.63525   -2629.9766   -1031710.5 
    8400    271.94813    300.24613    299.54554   -2986.5718   -1031711.9 
    8500    272.15855    298.65302    300.01215   -3344.3713   -1031685.2 
    8600    272.36666    299.83087    300.11941   -3498.5813   -1031645.4 
    8700    273.34493    304.82149    300.69391   -3604.7084   -1031630.3 
    8800    272.53377    300.38699    300.25568   -3930.6548   -1031650.6 
    8900    271.65615    300.48901    299.15122   -4226.4025   -1031683.1 
    9000    271.56991    300.15144    299.08741   -4639.1991   -1031696.1 
    9100    271.90454    299.73195    299.55749   -4159.2115   -1031677.3 
    9200    273.24134    301.90568    300.94018   -3388.6019   -1031650.7 
    9300    273.10581    302.58916    300.68372   -2543.6257     -1031657 
    9400    272.51425    304.01335     299.7649   -2151.5052   -1031690.1 
    9500    271.72178    299.11689    299.40934   -1782.6406   -1031723.4 
    9600    272.25533    301.40248     299.7788   -1427.5035   -1031730.5 
    9700    271.28667    299.39086    298.83304   -1096.9283   -1031703.8 
    9800    273.27364    304.08899    300.69948   -807.06968   -1031659.4 
    9900     273.3166    300.74812    301.18267   -534.70693   -1031652.6 
   10000    272.46625    300.72641    300.12806   -244.92625   -1031690.1 
   10100    272.04188    299.83571    299.71493   -157.11235   -1031733.2 
   10200    271.41187    299.23872     299.0083   -623.14111   -1031748.6 
   10300    272.08343     298.5717    299.92919   -1138.6711   -1031724.1 
   10400     272.4513    302.70177    299.85535    -1883.032   -1031674.6 
   10500    273.98802    305.22449    301.44176    -2410.524   -1031646.8 
   10600    273.08741    301.91673    300.74735   -2560.4567   -1031659.9 
   10700    272.16509    300.96595    299.72274   -2900.8109   -1031693.5 
   10800    271.32822     298.3043    299.02449   -3261.2911   -1031714.8 
   10900    272.11103    301.44574     299.5938   -3489.4578   -1031699.2 
   11000    272.38875    302.07004    299.85883   -4029.7912     -1031656 
   11100    273.03695    302.18345    300.65029   -4130.4587   -1031617.5 
   11200     272.4199     302.2683    299.87207    -4382.359   -1031618.5 
   11300    272.07757    301.52452    299.54205   -4334.0141   -1031662.3 
   11400    271.90541    299.94405    299.53128   -3699.9395   -1031701.6 
   11500    271.34621    297.94944     299.0925   -3216.5809   -1031713.2 
   11600    272.09737    299.47801    299.82994   -2477.7175   -1031692.7 
   11700    272.90408    303.81823    300.27477   -2320.2929   -1031665.1 
   11800    273.65977     301.1521    301.55744   -1922.6022   -1031664.2 
   11900    272.01035    297.53815    299.97128   -1365.9418   -1031694.5 
   12000    271.98714    298.70982    299.79168   -1121.2796     -1031720 
   12100    271.90852    300.36866    299.48053   -801.51844   -1031723.5 
   12200     271.5748     301.9194    298.86607   -299.76836   -1031706.6 
   12300    273.10829     299.2411     301.1175    84.915408   -1031687.9 
   12400    272.49653    299.35196    300.34252    77.635665   -1031693.8 
   12500     271.3687    297.24996    299.21045   -320.20597   -1031710.6 
   12600    271.07808    298.83413    298.64527   -1216.0523   -1031721.6 
   12700    272.54421    300.59551    300.24183   -2084.6909   -1031716.3 
   12800    271.88798    299.88795    299.51682   -2166.1578   -1031692.3 
   12900    272.53573    298.32361    300.52355    -2873.996   -1031664.6 
   13000    273.02334    298.78565    301.07045   -3137.1662   -1031655.7 
   13100     272.2135    294.76483    300.58065   -3478.5631     -1031678 
   13200    271.25735    297.48881    299.04126   -3859.1238   -1031699.9 
   13300    271.90267    298.13708    299.76033   -4410.9948   -1031693.9 
   13400    271.84727    302.24315    299.16324   -4530.7374   -1031667.8 
   13500     273.2628    301.43907    301.02688   -4599.0396   -1031638.2 
   13600    273.58901    302.24614    301.32872   -4242.7789   -1031629.5 
   13700    272.60319    300.35774    300.34577   -3531.3663   -1031659.2 
   13800    271.82571    297.97981    299.68485   -2657.5445   -1031708.4 
   13900    271.23196    300.60342    298.60903   -2086.6263   -1031736.5 
   14000    272.03544     301.6787    299.46983   -1610.0857   -1031721.8 
   14100    272.18774    299.11541    299.98896   -1523.6594   -1031689.5 
   14200    274.17477    302.23612    302.05839   -1073.0768   -1031665.7 
   14300    272.39902    298.53628    300.32619   -677.43787   -1031673.9 
   14400    272.46078    296.02035    300.72664   -431.82736   -1031708.2 
   14500    271.42959    299.44166    299.00423   -43.043586   -1031734.9 
   14600    271.47412    302.11129    298.71619    104.63293   -1031731.3 
   14700    272.49301    300.62805    300.17397   -162.04069   -1031710.4 
   14800    273.37469    301.53276    301.15398   -858.90546   -1031687.6 
   14900    272.44973    300.29154    300.16345   -1688.2327   -1031682.1 
   15000     271.9755    298.55561    299.79705   -2160.2593   -1031693.9 
   15100    272.30522    298.63371    300.19701   -2639.0178     -1031704 
   15200     271.3604    301.05639    298.71048   -3285.8515   -1031700.1 
   15300    271.93703    299.04447    299.68632   -3590.0287   -1031682.4 
   15400     272.2973    299.16886    300.11833    -4108.737   -1031657.2 
   15500    273.06596    299.70515    301.00517    -4200.803   -1031635.7 
   15600    272.86202    298.56278    300.89852   -4563.2045   -1031635.3 
   15700    272.32468    304.19478    299.50584   -4450.1414   -1031648.3 
   15800    272.78622    304.46204    300.04539   -4383.4974   -1031666.9 
   15900    271.88643    301.49214    299.30854    -3771.386   -1031678.5 
   16000    273.24759    302.54241    300.86604   -3085.4984   -1031679.3 
   16100    272.52022    300.25189    300.25621    -2441.701   -1031683.4 
   16200    272.20966    300.01842    299.90005   -1839.8301   -1031697.6 
   16300    272.54904    299.37002    300.40548   -1447.6577     -1031708 
   16400    271.89579    302.23778    299.22425   -1001.6066   -1031709.6 
   16500    271.65974    302.60216    298.88385   -658.93847   -1031705.3 
   16600    272.71791    299.94497    300.54152   -417.93612   -1031689.8 
   16700    273.57819    302.00986    301.34565   -229.69277   -1031679.5 
   16800    272.80095    299.30906    300.72658    -263.6692   -1031690.5 
   16900    272.02012    303.62826    299.19999   -270.64602   -1031715.3 
   17000    271.47078    299.34978    299.06727   -641.49557   -1031732.5 
   17100    271.43653    299.50942    299.00414   -1305.0369   -1031720.5 
   17200    272.52306    303.50106    299.84177   -2138.3805   -1031686.9 
   17300    272.31993    301.56452    299.83829   -2802.9893   -1031659.7 
   17400     273.2899    302.44975    300.93057   -3016.3777   -1031657.6 
   17500    272.80372    302.62481    300.30349   -2994.9999     -1031686 
   17600    271.61953    299.74382    299.20155   -3619.4368     -1031707 
   17700    271.78089    298.08905    299.61507   -3818.7094   -1031698.2 
   17800    271.63796    299.56359    299.24765   -4229.2946     -1031664 
   17900    273.15086    300.15103    301.05339    -4280.933   -1031634.7 
   18000    272.65198    300.05768    300.44503   -4246.5728   -1031634.5 
   18100    272.26968    296.98998    300.36427   -3873.9632   -1031669.8 
   18200    271.65421    298.53176    299.40059   -3338.6841   -1031698.7 
   18300    271.84775    300.58645    299.37695   -2670.8824   -1031709.7 
   18400      271.614    301.74731    298.93695   -2183.1583   -1031702.7 
   18500    272.14613    300.79807    299.72077   -1869.1929   -1031687.5 
   18600    272.85192    299.04264    300.82424   -1515.3792   -1031683.2 
   18700    272.54366    296.49535    300.76859   -904.18488   -1031701.2 
   18800     271.3607    298.06254    299.09597   -764.39379   -1031717.1 
   18900    272.27365    299.22233    300.08203   -227.84812   -1031723.5 
   19000    273.11224    297.72373    301.31761    -356.2907     -1031721 
   19100    271.96165    300.68642    299.50572   -367.64947   -1031706.5 
   19200    272.52688     301.5358    300.09932   -434.23159     -1031689 
   19300    273.81074    303.07732    301.49751   -967.45734   -1031680.4 
   19400    271.92996    301.77112    299.32678   -1548.1038   -1031685.9 
   19500    271.52934    299.79335    299.08302    -2435.842   -1031699.2 
   19600    271.96534    298.05119     299.8493   -2764.5999   -1031694.5 
   19700    272.14492    300.28971    299.78465   -3134.9909   -1031677.6 
   19800     272.6193    299.76538      300.442   -3412.2597   -1031662.3 
   19900      272.732    301.52334    300.35599   -3726.3053     -1031660 
   20000    271.96762    301.56052     299.4007   -3926.1944   -1031673.1 
   20100    272.52745    299.44857    300.36853   -3949.4823   -1031678.8 
   20200     272.2207    298.51248    300.10751   -4025.8155   -1031671.9 
   20300    272.13813    298.28051    300.03467   -4153.1141   -1031658.5 
   20400    273.41628      301.566    301.20142   -3889.4428   -1031649.8 
   20500     272.9711    303.35426    300.41779    -2979.315   -1031655.1 
   20600    272.77694    302.44209    300.29369   -2384.1957   -1031685.6 
   20700    271.35819    300.83473    298.73623   -1764.0799     -1031720 
   20800     271.3881    300.39493    298.83001   -1406.8259   -1031728.6 
   20900    271.53307    298.96098    299.19474   -1269.1058     -1031711 
   21000    273.00392     302.3099    300.59294    -1023.764   -1031685.3 
   21100    272.48907    301.65044    300.03756    -846.8691   -1031670.5 
   21200    272.88695    303.37241    300.31081   -469.00917   -1031680.5 
   21300    271.96836    299.38164    299.68191   -626.55456   -1031711.9 
   21400    272.01866    301.15717    299.51606   -391.30692   -1031721.7 
   21500    272.55666    300.99543    300.20587   -773.89074   -1031710.3 
   21600    272.09407    301.13048    299.61327   -1410.8387   -1031689.1 
   21700    273.80209    301.70213    301.66366   -2087.1997   -1031674.4 
   21800    272.45823    305.42851    299.51321   -2475.4501   -1031677.2 
   21900     272.6015    299.67704    300.43123   -2970.4742   -1031694.3 
   22000    272.39278    299.04243    300.25331   -3205.4484   -1031705.4 
   22100    271.26584    300.46929    298.66841   -3394.6859   -1031692.3 
   22200    272.74753    302.73118    300.21993   -3862.0311   -1031665.4 
   22300    273.13354     300.2387    301.02057   -3798.4142   -1031643.5 
   22400    272.38096    302.33776    299.81471   -3910.5712   -1031642.8 
   22500     272.3868    301.31286    299.95381     -4106.34   -1031666.6 
   22600    271.80021    298.04941    299.64419   -3870.1029   -1031687.6 
   22700    272.05785    298.57916    299.89643   -3523.7402     -1031687 
   22800    272.59998    301.82262    300.15332   -2656.7288   -1031674.1 
   22900    273.44129    303.13822    301.03026   -2209.3254   -1031673.8 
   23000    272.42471    302.07252    299.90323   -1765.7877     -1031692 
   23100    272.85997    298.46526    300.90852   -1546.7643   -1031718.6 
   23200    271.53864    299.25432    299.16393   -1386.6509     -1031736 
   23300    271.65462     296.9833    299.60029   -962.90246   -1031720.3 
   23400    273.10758    299.92456     301.0287   -954.25171   -1031691.9 
   23500     273.6883    301.45641    301.55377   -992.00361   -1031675.7 
   23600     272.7908    300.47874    300.56349   -667.11857   -1031683.2 
   23700    272.04146     300.9694    299.56856    -456.2359   -1031708.4 
   23800    271.46149    297.25454    299.32524    -967.4965   -1031732.5 
   23900    271.06367    298.90312    298.61848   -1454.8433   -1031723.4 
   24000    271.95776    296.58087    300.02902   -1923.1359   -1031690.6 
   24100    272.34748    296.40428    300.53636   -2499.7285     -1031665 
   24200    272.90684    297.23683    301.12482   -2868.1937   -1031662.6 
   24300    272.12477    298.43954    299.99761   -2967.9156   -1031681.8 
   24400    271.65281    298.00397    299.46674   -3520.5454   -1031705.1 
   24500    270.84504    295.57298      298.775   -3593.0347   -1031710.7 
   24600    272.11119    298.09396    300.02517   -3745.9246   -1031682.7 
   24700    272.39546    300.18623    300.10951    -4153.965     -1031646 
   24800    272.71853    298.75823    300.69495   -4158.8229   -1031635.3 
   24900     272.5245    300.85891    300.18343   -3898.9006   -1031652.9 
   25000    272.53018    299.50441    300.36474   -3318.7952   -1031685.9 
   25100    271.47518     295.0974    299.61976   -2765.5505   -1031715.1 
   25200    271.49244    296.88562    299.41119   -2242.6173   -1031715.4 
   25300    272.30322    301.62722    299.80945   -1903.9369     -1031691 
   25400    272.81506    299.23559    300.75358   -1797.4826   -1031677.8 
   25500    272.80305    298.37517    300.84933   -1318.8526   -1031683.7 
   25600    272.36889    302.60886    299.76483   -1160.8736   -1031702.5 
   25700    271.94232    299.68084    299.61105   -998.76483   -1031717.8 
   25800    271.40014    299.11846    299.00918    -620.2613   -1031719.4 
   25900    271.32968    299.10914    298.92276   -393.14805   -1031708.3 
   26000    272.76948     300.7824    300.49791   -465.11669   -1031693.6 
   26100    271.87562    300.09204     299.4752   -1105.6748     -1031690 
   26200    272.22274    301.68485    299.70195   -1404.9257   -1031701.8 
   26300    271.24675    299.01527    298.83172    -1806.245   -1031708.8 
   26400    272.42941    302.13969    299.90044   -2426.8311   -1031701.2 
   26500    272.68572     299.6812    300.53542    -2796.434   -1031684.2 
   26600    272.11335     298.3329    299.99712   -3249.6748   -1031676.9 
   26700    272.79285    299.25062    300.72402    -3512.231   -1031671.5 
   26800    271.58061    299.09635    299.23644    -3632.283   -1031672.4 
   26900    271.82713    300.10687    299.41299    -3920.533   -1031679.2 
   27000    272.05433    298.25585    299.93363     -4278.85   -1031676.3 
   27100    272.21193    300.16692    299.88377   -4052.2156     -1031665 
   27200    272.24846    296.22745    300.43597   -3902.8255   -1031657.4 
   27300    273.21452     298.3058    301.36991   -3337.4361     -1031665 
   27400    272.44719    300.67852    300.11051   -2778.6104   -1031682.1 
   27500    271.21054    301.14581    298.51262    -2184.194   -1031707.6 
   27600    271.54454     301.7947    298.84448   -1803.5089   -1031720.7 
   27700    272.20857    298.36467    300.11144   -1286.3537   -1031714.9 
   27800     272.5725     299.2133    300.45482   -975.04395   -1031697.3 
   27900    272.70784     300.5317    300.45352   -700.28601   -1031678.3 
   28000    272.61267    300.56928    300.33033   -448.36885     -1031683 
   28100     271.6345    298.40189    299.39279   -219.94622   -1031705.5 
   28200    272.02779    298.20206    299.90756   -196.78322   -1031721.3 
   28300    272.35958    300.70612    299.99801   -758.95979     -1031717 
   28400    271.91873    301.51148    299.34622   -1210.0759   -1031697.6 
   28500    272.74992    302.60038    300.23973   -1881.1301   -1031672.1 
   28600    272.85515    302.75502    300.35069   -2369.0453   -1031669.8 
   28700    272.26885      299.831    299.99777   -2856.4648   -1031686.5 
   28800    272.76815    299.86816    300.61387   -3126.2004   -1031700.7 
   28900    271.10957    297.56813     298.8473   -3387.2211     -1031696 
   29000    272.40009    300.11708    300.12417   -3818.4235   -1031673.2 
   29100    273.16241    302.98657    300.70298   -3948.3637   -1031643.7 
   29200    273.58858    300.99165    301.48955   -4048.4248   -1031633.9 
   29300      272.284    298.98909    300.12491   -4131.4199   -1031652.5 
   29400    271.79144    299.29032    299.47367   -3964.8396     -1031676 
   29500    272.42634    300.04889    300.16558   -3564.8753   -1031687.8 
   29600    271.90583     300.4817    299.46264   -2725.7306   -1031686.4 
   29700    272.66523    300.53632    300.39994   -2388.1875   -1031677.8 
   29800    272.31442    304.60508     299.4403   -1970.8332   -1031674.6 
   29900    272.64793     302.6291    300.10921   -1676.4029   -1031690.3 
   30000    272.10827    301.00664    299.64685   -1395.8723   -1031713.6 
   30100    272.04185    300.49976    299.62946   -914.23621   -1031716.1 
   30200    271.67037    298.90068    299.37323   -503.61792   -1031704.4 
   30300    273.45264    301.71422    301.22756   -409.22288     -1031688 
   30400    273.39595    303.17845    300.96871   -220.21459   -1031681.1 
   30500    272.44517    300.88168    300.08186   -396.80872   -1031698.7 
   30600    271.97319    301.03617    299.47507   -745.96601   -1031725.9 
   30700    271.98491    302.27908    299.32977   -1344.8364   -1031724.3 
   30800    272.24843    300.89615    299.83535   -1916.2921   -1031696.7 
   30900    271.97759    302.96963    299.23183   -2477.3109   -1031675.3 
   31000    273.25516    301.85099     300.9644   -2742.8042   -1031669.3 
   31100    272.22792    300.65561    299.84079   -3315.2965   -1031682.8 
   31200    271.36328    296.40994    299.31177   -3548.8344   -1031707.7 
   31300    271.21944    297.35124    299.01182   -3821.4816     -1031706 
   31400    271.71235    300.28427    299.24745   -4128.8576   -1031669.3 
   31500    273.49865    301.78925    301.27513   -4544.0851   -1031653.1 
   31600    272.29673    301.89399    299.76705   -4275.0567   -1031652.6 
   31700    272.65526    299.22561    300.55614   -4051.6634   -1031666.9 
   31800    272.49869    301.30226    300.09431   -3355.3521   -1031695.5 
   31900    271.80021    301.22705    299.23542    -2629.091   -1031701.2 
   32000     272.2635    299.58961    300.02217   -2179.1649   -1031694.9 
   32100     272.4634    298.20284    300.44914   -1656.0125   -1031687.6 
   32200    272.61052    301.36893     300.2248   -1375.7051   -1031687.1 
   32300    272.16602    297.96644    300.10975   -1141.3263   -1031703.6 
   32400    271.89366    300.23746    299.47893   -952.80604   -1031716.4 
   32500    272.16658    300.25786    299.81568   -378.41784   -1031708.6 
   32600    272.86504    301.34095    300.54489   -276.84669   -1031684.8 
   32700     273.2237    301.31177    300.99464   -443.76659   -1031674.4 
   32800    271.81655    300.54586    299.34338   -601.37231   -1031700.7 
   32900    271.87406    297.23343      299.841    -1165.676   -1031731.7 
   33000    271.26542    298.28534    298.94882   -1870.9734   -1031719.7 
   33100    272.44566    302.28308     299.9022   -2143.0233   -1031688.7 
   33200    272.86648    302.83094    300.35501   -2690.6557   -1031675.9 
   33300    272.14686    300.80376    299.72094   -2895.1762   -1031677.5 
   33400    272.46673    299.32903    300.30841   -3295.0478   -1031686.3 
   33500    271.62311    297.72508    299.46569   -3549.3534   -1031692.8 
   33600    271.59205    299.11103    299.24878    -3908.665   -1031679.6 
   33700    272.60184      303.305    299.96495   -4125.7188     -1031647 
   33800    272.49895    301.71168    300.04197   -4056.5913   -1031637.8 
   33900    272.71407    300.58821      300.454    -4069.457     -1031651 
   34000    271.64731    298.61054    299.38187   -3699.3223   -1031686.1 
   34100     271.8364    299.68848    299.47835   -2958.5562   -1031692.9 
   34200    271.98959    301.12903    299.48353    -2776.796     -1031689 
   34300    272.82758    304.51386    300.09015   -2013.3948   -1031681.2 
   34400     272.0537    303.01038    299.32123   -1482.6577   -1031696.4 
   34500    272.41028    301.43278    299.96758   -1283.2138   -1031719.8 
   34600    271.78869    300.80411     299.2755   -1003.0796   -1031713.7 
   34700    272.39815    300.63605    300.05499   -767.56676   -1031698.2 
   34800    272.29419    298.77731    300.16482   -592.89543   -1031697.5 
   34900    272.23291    298.06113    300.18075   -518.16134   -1031699.8 
   35000    272.64474    300.84133    300.33522   -582.46861   -1031697.1 
   35100    272.16864    302.11206    299.57973   -933.42193   -1031711.1 
   35200    271.41318    299.93486    298.92038   -1521.0083   -1031730.5 
   35300    271.52483    297.34831    299.39195    -2068.587   -1031713.4 
   35400    272.59325    299.79101    300.40631   -2464.6351   -1031692.5 
   35500    271.87126     299.3182    299.56933   -2634.9313   -1031686.4 
   35600    272.40465    301.10916    300.00221   -3236.0244   -1031685.4 
   35700    272.85864    303.95645    300.20048   -3341.7022   -1031680.5 
   35800    272.50236    303.46908    299.82013   -3572.2921   -1031669.5 
   35900    272.35588    299.94675     300.0911   -3951.1175     -1031654 
   36000    272.74766    298.32688    300.78666   -3916.8505   -1031647.9 
   36100    272.56277    299.20798     300.4434   -3927.2411   -1031656.8 
   36200    271.69595    299.18893    299.36796   -3708.2192   -1031686.1 
   36300    271.81724    296.75026     299.8325   -3089.7771   -1031700.9 
   36400    271.68999    300.46998    299.19576   -2678.3862   -1031686.9 
   36500     272.8728    302.19148    300.44513   -2572.1843   -1031673.8 
   36600    272.76231    300.79454    300.48744   -2134.4844   -1031678.6 
   36700    271.92181     298.3177    299.76089   -1844.7264   -1031714.5 
   36800    271.13963    298.81182    298.72468   -1474.4826   -1031726.3 
   36900    272.09619    300.07231    299.75202   -1086.2733   -1031708.4 
   37000    272.35706    299.79035    300.11268   -688.33578   -1031684.7 
   37100    272.43928    299.62662    300.23599   -611.04987   -1031679.3 
   37200    272.66982    302.85083    300.10791   -616.49454   -1031680.7 
   37300    272.10666    301.38462    299.59622   -693.43706   -1031694.3 
   37400    271.61295    298.35491    299.37203   -1196.2771   -1031706.2 
   37500    272.38377    298.72746    300.28263   -1572.9697   -1031705.5 
   37600    272.33829    299.50473    300.12609   -1672.3283   -1031701.4 
   37700    272.16402    299.41384    299.92107   -2234.6751   -1031695.7 
   37800    272.22705    300.31107    299.88404    -2537.384   -1031676.8 
   37900    273.32477    302.56967    300.95851   -3014.0981   -1031642.2 
   38000    271.82339    298.70582    299.58857    -3159.138   -1031647.6 
   38100    272.53508    298.93143    300.44454   -3680.0105   -1031677.9 
   38200    272.13088    296.57883    300.24456   -3785.3001     -1031684 
   38300    271.21552    297.95987    298.92865   -3909.2356   -1031673.6 
   38400    272.81241    300.34515    300.60755   -4076.0732   -1031658.1 
   38500    273.27862    303.95477    300.72294   -3727.0634   -1031647.7 
   38600    273.30471    302.37113    300.95911   -3486.9427   -1031664.6 
   38700    272.28754    304.00081     299.4846   -3010.2321   -1031697.3 
   38800    272.41332    299.55414    300.21303    -2497.782   -1031702.5 
   38900    272.53236    297.96395    300.56563   -2072.5077     -1031688 
   39000    273.60556    299.47321      301.706   -1743.1812   -1031674.2 
   39100    272.77157    305.61468    299.87889   -1302.2091   -1031679.1 
   39200    271.61893     299.5967    299.21973   -1035.0919   -1031704.5 
   39300    272.25723    302.94238    299.58307   -716.96588   -1031707.2 
   39400    272.26977    300.30227    299.93828   -348.61566   -1031703.9 
   39500    272.36714    299.07837    300.21681   -218.75721   -1031689.6 
   39600    272.85019     299.7566    300.73024   -665.09619   -1031689.5 
   39700    271.98629    301.76887    299.39711    -925.0141     -1031720 
   39800    272.24904    303.88177    299.45205    -1404.107     -1031718 
   39900    272.17376    297.91468    300.12603   -1846.7394   -1031708.1 
   40000    272.23448     297.8093    300.21509   -2448.0157     -1031697 
   40100    272.22984    297.58513    300.23817   -2651.8247   -1031687.5 
   40200    272.08742    301.71589    299.52969   -3165.5961   -1031684.2 
   40300    272.01411    300.53028    299.59104   -3612.7225   -1031694.4 
   40400    271.06692    300.28608    298.44462   -3989.8018   -1031701.1 
   40500    271.19655    296.50211    299.09258   -4106.9413   -1031683.9 
   40600    272.90163    299.80681    300.78774   -4108.9339   -1031669.8 
   40700    272.13264    299.59597    299.85863   -3727.9886   -1031656.4 
   40800    272.30267    299.56448    300.07411   -3556.8604   -1031660.5 
   40900    271.57145     302.4271    298.79659   -3293.6272   -1031687.2 
   41000    272.28217    299.77913      300.021   -3068.8522   -1031694.4 
   41100    272.86437    295.47631    301.29849   -2454.8814   -1031698.4 
   41200    271.94349    296.95558    299.96307   -2024.2626   -1031703.4 
   41300    271.67569    297.84888    299.51515   -1535.7492     -1031714 
   41400    271.73425    300.56452    299.23863   -1036.8869   -1031728.3 
   41500     271.9779    297.69157    299.91119   -664.54563   -1031717.8 
   41600    272.45314    300.12983    300.18849   -501.37162   -1031693.2 
   41700     272.7888    300.77266     300.5232   -437.49986   -1031689.6 
   41800    272.30938    302.28082    299.73302    -580.9276   -1031700.2 
   41900    272.25028    298.68081    300.12263   -840.67997   -1031711.6 
   42000    272.07221     300.4048    299.67943   -1070.9527   -1031712.7 
   42100    273.16089    300.70755    300.99427   -1506.3736   -1031693.5 
   42200    272.86282     301.1913    300.56138   -2038.7036   -1031671.5 
   42300    272.67812    299.12828    300.59709   -2507.7888   -1031669.9 
   42400    271.42564     298.1743    299.16235   -2704.3135   -1031690.4 
   42500    271.48295    296.40077    299.46176   -3456.2824   -1031710.6 
   42600    271.60065    298.77181    299.30311   -3850.0868   -1031701.5 
   42700    272.38436    299.31465    300.20783   -4092.2945   -1031669.4 
   42800    271.88037    302.03423    299.23126   -4300.8953   -1031661.6 
   42900    273.26042    302.30897    300.91202   -4178.3535   -1031654.6 
   43000    272.01099    301.44145    299.46995   -3943.0005   -1031652.5 
   43100    272.58051      302.947    299.98448   -3480.4284   -1031673.4 
   43200    271.92209    299.45067     299.6155   -3047.7236   -1031703.1 
   43300    271.89275    298.77905    299.66541   -2638.2772   -1031704.1 
   43400    273.09773    300.38955    300.95663   -2092.9462   -1031679.8 
   43500    273.66196    302.09438    301.43895     -1694.29   -1031644.6 
   43600    272.94991    302.34145    300.52172   -1437.6684   -1031655.7 
   43700    272.37491     302.9101    299.73356   -777.16807   -1031677.2 
   43800      272.984    299.92652    300.87477   -498.95752     -1031700 
   43900    271.22301      296.094    299.17799    -175.4668   -1031716.3 
   44000    270.91465    295.63192    298.85399   -188.58133   -1031720.1 
   44100    272.55258    301.04392    300.19456   -434.93648     -1031698 
   44200     272.9874    301.77143    300.64167   -1052.4508   -1031667.9 
   44300    273.33183    301.06162    301.16129   -1323.6659   -1031674.1 
   44400    271.73286    299.55122    299.36725    -1673.018   -1031705.6 
   44500    271.41075    298.16216     299.1454   -2254.6806   -1031714.4 
   44600     271.8366    300.44995    299.38064   -2675.0497   -1031703.3 
   44700    271.81053    301.84208    299.16914   -2998.1718   -1031684.4 
   44800    272.52461    298.63603    300.46953   -3481.8455   -1031666.8 
   44900    272.14276    303.92766    299.31398    -4032.853   -1031650.9 
   45000    272.70957    301.29185    300.35788   -4118.6137   -1031652.6 
   45100    271.83441    302.19357    299.15362   -4295.8717   -1031660.9 
   45200    272.12887    300.37088    299.75425   -4262.7518   -1031663.8 
   45300    272.07167    299.82665    299.75313   -3705.5027     -1031668 
   45400    272.33172    295.75031    300.60089   -3551.4981   -1031672.1 
   45500    272.48596    300.53259    300.17749   -3031.8807   -1031675.3 
   45600    272.08692    299.82052    299.77288   -2442.9991   -1031688.7 
   45700    272.24281    299.05264    300.06551   -1937.1414   -1031707.1 
   45800    271.47561    299.22067    299.08988   -1477.5044   -1031721.6 
   45900     271.0915    301.09822    298.37071   -1102.4847   -1031716.2 
   46000    272.80157    296.85644    301.04286   -622.00152     -1031694 
   46100    273.08259     302.7878     300.6293   -366.89711   -1031678.4 
   46200    272.54562    299.28991    300.41154   -115.88648   -1031685.4 
   46300     272.3244    302.01005    299.78654   -177.57871   -1031714.6 
   46400     271.6672    298.40309     299.4333   -673.98235   -1031727.8 
   46500    270.86201    296.01142     298.7397     -980.151     -1031716 
   46600    272.77465    298.14027    300.84423   -1557.0722   -1031698.1 
   46700    271.94711    300.78327    299.47518   -2014.9192   -1031687.9 
   46800    272.52975    299.66442    300.34362   -2546.0057   -1031686.1 
   46900    272.57294    298.78588    300.51035   -3072.1357   -1031690.4 
   47000    272.92223    296.68247    301.21527   -3494.6158   -1031668.4 
   47100    272.47854    297.52371    300.55532   -3758.0992   -1031651.6 
   47200    272.37154    301.83005     299.8683   -4078.8883   -1031659.7 
   47300    271.59019    297.95703    299.39492   -4226.1945   -1031671.3 
   47400    271.78311    303.09315    298.97411   -4010.7539   -1031672.9 
   47500    272.11812    298.71304    299.95415   -3756.6223   -1031676.7 
   47600    271.95821    297.50062    299.91126   -3235.9103   -1031678.8 
   47700    271.93361    298.93172    299.69657   -2984.5665   -1031677.2 
   47800    272.21162    299.04539    300.02766   -2524.6663   -1031680.6 
   47900    272.46002    301.59888    300.00806   -2335.8432   -1031689.1 
   48000    272.29319    299.91404    300.01735    -1711.594   -1031706.2 
   48100    271.26823    301.97711    298.47741   -1370.2675   -1031735.3 
   48200    271.64362    298.20112    299.42996   -1129.5303     -1031734 
   48300    271.54417    299.13345    299.18635   -682.11804   -1031726.6 
   48400    273.19339    301.21384    300.96955   -554.47527     -1031711 
   48500    272.59778    300.57421    300.31118   -370.97676     -1031695 
   48600     272.0762    299.87016    299.75317   -697.35815   -1031686.8 
   48700    271.65495    299.48045    299.27947   -1148.2351   -1031711.8 
   48800    271.66997    298.12078    299.47306   -1444.9235   -1031727.8 
   48900     271.8407    298.50462    299.63599   -1687.0379   -1031716.8 
   49000     271.7488    299.68032    299.37047   -2087.7615   -1031703.9 
   49100    272.06496    299.67453    299.76436   -2679.5024   -1031693.1 
   49200    272.60865    298.77214    300.55653   -3067.0722     -1031680 
   49300    272.39555     300.0229    300.13063   -3407.5531   -1031663.7 
   49400    272.28967     300.4141    299.94865   -3700.5673   -1031639.4 
   49500    273.59748    300.02891    301.62446   -4112.0624   -1031622.5 
   49600    272.53624    302.05736    300.04388   -4058.8526   -1031651.9 
   49700    272.20302    299.35292     299.9774   -3941.7267   -1031672.7 
   49800    272.06115    297.04388    300.09803   -3529.2566   -1031683.4 
   49900    271.94394    297.75776    299.86044   -3225.2412   -1031688.6 
   50000    271.58883    297.99663    299.38813   -2836.5431     -1031686 
   50100    272.27874    299.21835    300.08888   -2869.0307   -1031683.9 
   50200    271.88652    301.74511     299.2761   -2083.4635     -1031698 
   50300    272.15238    301.34239    299.65852    -1946.618   -1031713.2 
   50400    272.25418    297.45051    300.28576   -1407.0406   -1031706.4 
   50500    272.64928    300.91794    300.33101   -1045.8619     -1031680 
   50600    273.11515    297.79765    301.31171   -564.11584   -1031677.5 
   50700    272.29883     297.8047    300.29571   -325.01012     -1031698 
   50800    271.53578    300.55479    298.99308   -266.04951   -1031709.4 
   50900    272.39384    302.93572     299.7538   -650.34848   -1031709.1 
   51000    272.04825      299.072    299.82108     -1080.21   -1031702.8 
   51100    272.12346    298.00592    300.05176   -1344.1915   -1031686.5 
   51200    272.94872    297.15296    301.18769   -1768.5557   -1031669.2 
   51300    272.59003    299.18667    300.48004    -2022.394   -1031671.6 
   51400     271.5911    298.97231    299.26544   -2569.8105     -1031703 
   51500    272.22179    300.74785     299.8213   -3042.1309     -1031707 
   51600    272.08708    301.36649    299.57421   -3316.2556   -1031687.1 
   51700    271.74877    299.08044     299.4476   -3879.5337   -1031668.8 
   51800     272.9678    300.99959    300.71658   -4360.4087   -1031660.1 
   51900    272.03861    299.34692    299.77373   -4286.3725   -1031651.5 
   52000    272.11534    301.66251    299.57128   -4021.0152   -1031648.3 
   52100    272.93355    300.31601    300.76193   -3814.1717   -1031666.7 
   52200     271.3531    294.61011    299.53064   -3604.5453   -1031693.3 
   52300    272.82427     300.4189     300.6128   -3166.6502   -1031700.6 
   52400    272.91562    301.93028    300.53198   -2609.6695   -1031692.1 
   52500    272.11317    299.83006     299.8043   -2006.0728   -1031671.1 
   52600    273.23142     302.1681    300.89408    -1548.747     -1031658 
   52700    272.96241    301.44769    300.65224   -1098.1931   -1031682.6 
   52800    271.98675    299.81835     299.6486    -640.4194     -1031705 
   52900    271.96387    297.01963    299.98018   -260.10428   -1031711.5 
   53000    271.29791    299.08697    298.88612   -130.73055     -1031711 
   53100    272.32978    302.44277    299.73755    -324.4308   -1031699.2 
   53200    273.15171    302.10203    300.80346   -674.16929   -1031685.8 
   53300    273.12761    301.64568     300.8322   -975.31332   -1031682.2 
   53400    272.50953    298.60329    300.45499   -1453.6994   -1031699.6 
   53500    271.57998    297.78377    299.40451   -1931.3457   -1031722.5 
   53600    270.89025    297.16428    298.62651   -2319.0017   -1031723.4 
   53700    272.07242    299.95329    299.73777   -3008.1685   -1031687.2 
   53800    272.24423    300.96568    299.82119   -3332.3911   -1031669.6 
   53900    272.70636    300.51089    300.45436    -3711.218   -1031668.1 
   54000    271.97919    297.56504    299.92906   -4155.8815   -1031679.6 
   54100    271.67296    294.99324     299.8791   -4370.8137   -1031672.4 
   54200    272.14506     295.3435    300.42111   -4487.1862   -1031646.4 
   54300    273.75309    299.95966    301.82687   -3990.6249   -1031635.1 
   54400    272.17464    299.61982    299.90778   -3672.6442   -1031663.2 
   54500     272.4571    299.90796    300.22195   -3397.4877   -1031679.8 
   54600    271.72115    297.86522    299.56957   -2779.7388   -1031694.8 
   54700    271.64342    295.39867    299.79022   -2389.8998   -1031703.6 
   54800    272.49726    301.00354    300.13096   -1833.9373   -1031706.3 
   54900    271.81776     298.9077    299.55561   -1284.9979   -1031716.7 
   55000    271.62573    299.90187    299.18893   -863.88167   -1031721.3 
   55100     272.9638    301.08658    300.70043   -495.84949   -1031701.6 
   55200    272.52449    298.38607    300.50154   -138.83656   -1031684.5 
   55300    272.17214    297.80328    300.13835   -99.642294   -1031698.2 
   55400    271.78576    297.39508     299.7104   -523.94853   -1031716.7 
   55500      272.146    298.87419    299.96808    -943.3119   -1031710.8 
   55600    272.18658    299.97142     299.8774    -1273.817     -1031701 
   55700    272.61874     299.7978    300.43713   -1481.7676   -1031693.7 
   55800    272.26316    297.53388    300.28619   -1914.1382   -1031682.9 
   55900    273.08969    300.49069    300.93362   -2651.4998   -1031662.1 
   56000    273.19743    295.69357     301.6847   -3072.4719   -1031670.1 
   56100    271.71093    294.52259    299.98686   -3432.1882   -1031701.7 
   56200     271.6407    298.11868    299.43693   -4249.2907   -1031696.6 
   56300    272.52622     300.8509    300.18661   -4339.9792   -1031672.8 
   56400    272.73498    302.84924    300.18913   -4496.7609   -1031650.5 
   56500    273.04206    302.36144    300.63374   -4311.3921   -1031645.2 
   56600    272.94095     299.3267    300.89841   -3816.0785   -1031662.3 
   56700    271.01479    296.17562    298.90857   -3430.9814   -1031699.3 
   56800    271.69427    299.98471     299.2635   -3005.7583   -1031701.9 
   56900    272.93032    300.16507    300.77734   -2538.2441   -1031688.3 
   57000    272.43372     300.5615    300.10882   -2022.6922   -1031680.4 
   57100    272.34205    301.22775    299.90912    -1511.088   -1031692.3 
   57200    272.03563    298.92215    299.82467   -1170.4938   -1031720.8 
   57300    271.61968    300.15119    299.14933   -591.48723   -1031727.9 
   57400    272.94244    300.98674    300.68671   -200.52937     -1031711 
   57500    272.89587    301.38081     300.5781    208.23912   -1031689.7 
   57600    273.51576     302.0295    301.26549   -91.610439   -1031686.2 
   57700    272.00903    301.11965    299.50891   -412.55379   -1031697.4 
   57800    271.58415    300.35341    299.07913   -847.36881   -1031712.2 
   57900    272.29509    299.12541    300.12116   -1289.6712   -1031718.9 
   58000    272.86792    298.52302    300.91097   -1746.9352   -1031689.8 
   58100    273.38172    298.78943    301.51562   -2461.7218   -1031676.2 
   58200    272.73863    303.16085    300.15359   -3154.6699   -1031685.9 
   58300    271.42097    300.88657    298.80763   -3504.5375   -1031694.6 
   58400    271.91691    302.71593    299.18901   -4193.4931   -1031679.8 
   58500    273.54217    301.16578    301.40944   -4477.1986   -1031643.7 
   58600    271.91077    300.70656    299.43987   -4634.0743   -1031647.5 
   58700    272.30457    297.98165    300.28009   -4582.0223   -1031659.1 
   58800    272.21059    299.77809    299.93212   -4038.2498   -1031673.7 
   58900    271.64657    301.77608    298.97374   -3546.7594   -1031683.3 
   59000    272.72244    302.24005    300.25191   -3317.3036   -1031689.1 
   59100    271.34104    299.26146    298.91729   -2890.4736   -1031705.6 
   59200    271.81732    301.20105    299.26005    -2257.743   -1031719.8 
   59300    272.85945    298.28947    300.93048   -1574.2903   -1031706.1 
   59400    272.65121    300.89931    300.33581   -1088.6508     -1031688 
   59500    272.73272    301.17184     300.4021   -477.22572   -1031689.4 
   59600    272.53404    301.78292    300.07644   -261.87478   -1031697.5 
   59700    272.00639    301.13881    299.50316   -39.477756     -1031708 
   59800    271.57445    299.31537    299.20061   -84.048741   -1031713.2 
   59900    272.15886    299.47467    299.90683   -385.24153   -1031707.6 
   60000    272.22921    297.63134    300.23143   -926.72712   -1031694.8 
   60100    273.02853    303.12907    300.51817   -1320.1466   -1031682.7 
   60200     273.2043    302.70826    300.79088   -1607.6404   -1031673.5 
   60300    272.59363    303.38806    299.94406   -2206.5783   -1031690.9 
   60400    271.96952    304.34665    299.04465   -2842.4008   -1031709.7 
   60500     271.1884    299.43564    298.70508   -3439.2843   -1031698.2 
   60600    272.44904    299.74834    300.23247   -3876.7705   -1031676.9 
   60700    272.61567    297.88087    300.67991   -4184.4439   -1031669.4 
   60800    271.49446    298.16173    299.24954   -4462.4075   -1031660.3 
   60900        272.6    301.22864    300.22976   -4554.8236   -1031645.6 
   61000    273.66815    301.87601    301.47474   -3989.3634   -1031623.7 
   61100    273.06565     301.0435    300.83262   -3594.1087   -1031631.9 
   61200    272.57079    300.94004    300.23057   -3271.7741   -1031673.2 
   61300    272.95238    300.04495    300.82021   -2765.5697   -1031689.8 
   61400    272.06035    300.11975    299.70136   -2335.6597   -1031699.1 
   61500    273.02184    300.41984    300.85837   -2046.8526   -1031703.7 
   61600    272.55694    301.77748    300.10562   -1376.2431   -1031705.7 
   61700    271.91051     302.9885    299.14599   -973.63301   -1031700.9 
   61800    272.41897      296.638     300.5952   -536.86213   -1031695.1 
   61900    272.40028    297.95394    300.40267   -119.59388   -1031691.8 
   62000    272.44799    296.73128    300.61927    44.977125   -1031702.4 
   62100     271.1829    300.79734    298.52308   -432.76141     -1031720 
   62200    271.98659    302.35641    299.32191   -1123.4771   -1031714.6 
   62300    272.88699    300.26067    300.71115   -1348.9135   -1031700.2 
   62400    271.93061    296.57484    299.99604   -1786.9236   -1031701.8 
   62500    271.75177    298.36856     299.5429   -2088.6036   -1031699.4 
   62600     272.2304     300.0108    299.92683   -2382.0771   -1031694.9 
   62700    271.57918    299.93309    299.12703   -2881.3377   -1031695.8 
   62800    272.00505    301.20929    299.49242   -3405.0614   -1031703.2 
   62900    271.53165    301.74423    298.83494   -3574.5729   -1031691.8 
   63000     272.2605    299.43015    300.03894    -3902.343   -1031670.8 
   63100    272.13202    295.69563    300.35959   -4064.4663   -1031670.9 
   63200    272.23251     297.0622    300.30876   -3979.3774   -1031666.7 
   63300    272.44052    299.27565    300.28268   -3818.6374   -1031668.8 
   63400    272.52045    302.20838     300.0048   -3471.7174   -1031692.7 
   63500    271.06543    298.78246    298.63619    -3239.137   -1031694.5 
   63600    272.55864    299.35881    300.41886   -2759.1197   -1031682.2 
   63700    272.48328    298.32642    300.45796   -2473.2154   -1031669.4 
   63800    272.88506    298.04381    300.99394   -1843.7488   -1031667.1 
   63900    272.37945    299.52776    300.17431   -1448.3501   -1031694.1 
   64000    272.36721    301.67286    299.88314   -1216.9077   -1031707.2 
   64100    272.34598    301.97152    299.81832   -747.58899   -1031714.3 
   64200    272.68177    302.83449    300.12487   -460.29956   -1031707.4 
   64300    272.41128    298.44959    300.35259    -311.7165   -1031692.2 
   64400    272.66461    297.31881    300.81307   -547.85447   -1031693.3 
   64500    271.50656    299.49892    299.09257   -912.52561   -1031707.7 
   64600    271.78231    300.24902    299.33897   -1191.9362   -1031722.9 
   64700    271.70957    300.21168    299.25333   -1528.5847   -1031713.8 
   64800    271.89681    298.56415    299.69811   -2101.2356     -1031698 
   64900    272.90625    299.37854    300.84858   -2583.7668   -1031689.8 
   65000    272.41158    297.52622    300.47174   -2833.2531   -1031689.1 
   65100     272.5007    297.84073     300.5421   -3228.0037   -1031691.2 
   65200    271.52457    300.32581     299.0086   -3483.9511   -1031698.5 
   65300    271.48475    301.49557     298.8086   -4253.6921   -1031694.7 
   65400    271.82913    300.70937    299.33798   -4316.6697   -1031670.2 
   65500    272.33066    297.61292    300.35997    -4155.955   -1031663.3 
   65600    272.17277    298.53785    300.04465    -3736.193   -1031662.3 
   65700    272.59796    302.31126    300.08796   -3363.0684     -1031665 
   65800    271.74454     301.2628     299.1616   -3004.1056   -1031685.2 
   65900    272.20669    300.74296    299.80316   -2673.4147   -1031692.7 
   66000    272.03679    299.49154    299.75287   -2263.7388   -1031692.7 
   66100    272.49827    298.62963     300.4376   -1720.9789   -1031692.2 
   66200    272.09833    300.15193    299.74445   -1164.4176   -1031704.8 
   66300    271.59637    301.44231    298.95425   -895.85188   -1031718.3 
   66400    272.08805    300.35744    299.70522   -297.45452   -1031712.2 
   66500    272.75234    300.58344    300.50219   -268.32951   -1031695.7 
   66600    273.11272    302.14835    300.74902   -380.04564   -1031690.9 
   66700    272.70784    300.54681    300.45157   -626.69517   -1031696.5 
   66800    272.06299    300.15336    299.70031    -955.9347   -1031706.7 
   66900    271.71134    300.81783    299.17755   -1165.3531   -1031720.5 
   67000    271.11496    302.09042    298.27225   -1520.5772   -1031743.9 
   67100    271.87559    301.65809    299.27371   -2052.6336   -1031726.1 
   67200    271.11938    299.67358    298.58865   -2601.6351   -1031710.7 
   67300    272.01717    298.72873     299.8266   -3096.3306   -1031688.7 
   67400    272.06817    299.90181    299.73911   -3573.7385   -1031668.1 
   67500    272.91408    302.20533    300.49468   -3893.3646   -1031653.9 
   67600    272.12958    302.38338    299.49625   -4203.1781   -1031645.7 
   67700    272.44012    303.35292    299.75768   -4431.8358   -1031650.1 
   67800    272.42869    300.88397    300.06108    -4106.608   -1031677.4 
   67900    272.00493    300.39343    299.59724   -3835.2316     -1031693 
   68000    272.42007    299.80667    300.18894   -3580.8666   -1031684.1 
   68100    272.99939    299.01646    301.01099   -2935.4529   -1031657.2 
   68200    272.93313    300.80832    300.69808   -2544.7687   -1031657.5 
   68300    273.04716    303.34414    300.51367   -2097.6535     -1031670 
   68400    271.89628    302.31026    299.21555   -1568.9176   -1031681.8 
   68500    272.22768    299.15761    300.03319   -1214.6767   -1031703.7 
   68600    272.65883    300.77555    300.36121   -765.31925   -1031716.7 
   68700    271.57838    300.02199    299.11459   -222.05751   -1031727.2 
   68800    271.68555    300.27021    299.21593   -202.94392   -1031735.5 
   68900    271.79012    299.21278      299.482   -487.68036   -1031716.9 
   69000     273.1934    300.73116    301.03166   -853.96255   -1031700.2 
   69100    272.85791    298.44916    300.90802   -1133.3873   -1031701.5 
   69200    272.26435    298.14362    300.20923   -1422.2896   -1031700.5 
   69300    272.02154    303.26407    299.24861   -1695.9137   -1031709.7 
   69400    271.38428    300.99326    298.74829   -2136.2685   -1031726.4 
   69500    271.89916    300.37646    299.46789   -2782.5909   -1031710.3 
   69600    272.21405    300.50981     299.8423   -3299.1329   -1031696.5 
   69700    272.01106    297.40552    299.98922   -3912.0551   -1031686.8 
   69800     272.1142    298.20118    300.01512   -4093.6885   -1031666.6 
   69900    272.80862    299.19266     300.7511   -4505.4586   -1031650.2 
   70000     272.2759    300.06275    299.97672   -4287.7538   -1031642.6 
   70100    272.79874    301.42171    300.45206   -3944.8533   -1031658.1 
   70200    271.99737    298.22986    299.86615   -3562.0196   -1031691.1 
   70300    271.82671    296.96836    299.81622   -3355.6152   -1031701.5 
   70400    271.67968    299.89806    299.25651   -3129.5098   -1031685.8 
   70500    272.71788    300.41978    300.48039   -2381.6811   -1031657.4 
   70600     273.7398    301.34875    301.63166   -1892.6543   -1031651.9 
   70700    273.10023     302.0897    300.74104   -1481.0897     -1031687 
   70800    272.18122    300.97954    299.74105    -956.9816   -1031702.2 
   70900    271.90859    297.95784    299.79074   -503.20321   -1031721.5 
   71000    271.70922    298.12889    299.52082   -27.764326   -1031731.2 
   71100    272.22883    300.08566    299.91525   -41.645494   -1031715.4 
   71200    273.23357    300.99465    301.04772   -190.58175   -1031681.9 
   71300    272.45651    300.64615    300.12626   -704.56067   -1031677.9 
   71400    272.33336    298.71407    300.22166   -1004.8493   -1031695.8 
   71500     272.2954    298.93317    300.14627   -1646.7741   -1031715.9 
   71600    271.36586    296.07015    299.35868   -2207.4372     -1031723 
   71700    271.23549    293.73944    299.49639   -2881.3138   -1031715.2 
   71800    271.81197    300.43653    299.35174   -3132.3048   -1031685.7 
   71900    273.13354    298.87098    301.19652   -3630.3703     -1031667 
   72000    272.48739    299.59545    300.29982   -4028.3772   -1031660.3 
   72100    272.09549    301.58225    299.55691   -4483.0506   -1031669.1 
   72200    271.85386    302.88909    299.08833   -4667.6879     -1031695 
   72300    271.71826    301.09591    299.15039   -4241.4663   -1031694.6 
   72400    272.45036    298.23139    300.42925   -3849.7199     -1031672 
   72500    272.72446    299.34885    300.62635   -3206.8834   -1031661.9 
   72600    273.16457    298.42495    301.29248   -3085.9189   -1031669.1 
   72700    271.82957    299.75012    299.46192   -2723.2808   -1031689.8 
   72800    272.00472    299.33362     299.7333   -2006.0254   -1031695.9 
   72900    272.50549    296.97794    300.65904    -1525.975   -1031697.8 
   73000    272.27748    296.43732    300.44506   -758.63859   -1031702.8 
   73100    271.41919    296.23063    299.40436   -280.64223   -1031719.3 
   73200    271.73109    299.38973    299.38582    93.886251   -1031738.8 
   73300    271.53587    299.70549    299.10244    28.401768   -1031730.7 
   73400     272.0763    299.47874    299.80365   -261.90582   -1031703.2 
   73500     271.8285     301.6124    299.22104   -596.20157   -1031692.8 
   73600    271.88371    299.23603    299.59538   -1121.4029   -1031703.3 
   73700    271.38297    294.33553    299.60311   -1572.4617   -1031719.2 
   73800    271.15098    294.65787    299.27315   -1978.5394   -1031724.1 
   73900    271.23559    300.24027    298.66025   -2581.0139   -1031709.6 
   74000    272.59776    302.39267    300.07724   -3177.8998   -1031679.3 
   74100    272.95161    299.83932    300.84571   -3802.7483   -1031667.5 
   74200    271.76168    300.83836    299.23751   -3937.9283   -1031664.4 
   74300    272.95269    296.89531    301.22577   -4225.6188   -1031661.2 
   74400    273.20348     300.4268    301.08334   -4317.3364   -1031651.4 
   74500    272.78632    301.33132    300.44825   -4265.5167   -1031641.3 
   74600    272.16141    299.98734    299.84406   -4004.5037   -1031656.9 
   74700    272.36219    300.62431    300.01179   -3451.2603   -1031677.5 
   74800    271.81888    299.69602    299.45559   -2963.1705   -1031693.7 
   74900    272.18415    296.51359    300.31919   -2436.9043   -1031697.6 
   75000     273.2456    300.64211    301.10802   -1899.6408   -1031693.9 
   75100    272.20664    299.02315    300.02433    -1541.544   -1031694.3 
   75200     272.2563    299.46565    300.02916   -1147.2511   -1031700.3 
   75300    271.89763    300.33126     299.4718   -970.88952   -1031704.5 
   75400    272.41927    305.30012    299.48128   -561.56774   -1031702.3 
   75500    272.69458    301.88739    300.26263   -375.38468   -1031690.8 
   75600    272.53155    300.46039    300.24348   -238.54784   -1031680.8 
   75700    273.31782    300.25908     301.2471   -534.70714   -1031691.5 
   75800    272.45345    299.99735    300.20592   -1245.1259   -1031712.3 
   75900    272.30918    302.17198    299.74678   -1602.4231   -1031707.6 
   76000    270.98443    301.92947    298.13063   -2047.7065   -1031692.4 
   76100    272.80362    302.77551    300.28398   -2434.7232   -1031681.7 
   76200     273.0569    302.05138    300.69208   -2702.0727   -1031677.1 
   76300    272.07452    297.31881    300.07928   -3068.8411   -1031663.9 
   76400    273.37075    297.54454    301.66211   -3570.0902   -1031638.9 
   76500    272.64936    301.25276    300.28804   -3857.7442     -1031645 
   76600    271.84002     300.0671    299.43414   -4091.3648     -1031667 
   76700    271.80942    302.68051     299.0599   -4292.8902   -1031667.4 
   76800    271.85991     299.9123    299.47878   -4005.8603   -1031664.2 
   76900    272.89067    300.72247    300.65633   -3476.5591   -1031655.1 
   77000    272.55623    297.30215    300.68044   -2990.1957   -1031649.5 
   77100    272.45981    300.33704    300.17013   -2797.5661     -1031675 
   77200    273.01038    301.26775    300.73504   -2484.5422   -1031687.7 
   77300    272.71187    300.40262    300.47513   -1845.7898   -1031697.7 
   77400    272.48345    301.85553    300.00419   -1434.2597     -1031704 
   77500     272.3389    298.30129    300.28166   -970.01675   -1031700.6 
   77600    272.86341    299.02178    300.84121   -836.45303   -1031688.7 
   77700     272.5523    296.71914    300.75055   -823.55541   -1031686.5 
   77800    271.67877    296.52128    299.68976   -770.85144   -1031711.6 
   77900    271.98773    300.80281    299.52318   -796.91948   -1031720.4 
   78000    272.34273    301.28609    299.90246   -1065.9728   -1031708.4 
   78100    272.44047    302.84096    299.82398   -1328.8695   -1031690.3 
   78200    272.44001    299.73021    300.22358   -1609.1876   -1031684.5 
   78300    272.16261    298.20411    300.07494   -1798.4605   -1031695.3 
   78400    272.82278    300.31632    300.62415   -2379.8695   -1031699.7 
   78500    271.90578    298.50868    299.71639   -2713.7831     -1031698 
   78600    272.31085    299.83731    300.04918   -3059.5928   -1031691.9 
   78700    272.31374    302.17959    299.75147   -3486.5117   -1031661.8 
   78800    272.98096    300.51048    300.79587   -3620.3892   -1031648.1 
   78900    272.19025    300.06896    299.86942   -3932.3382   -1031657.3 
   79000    271.57211     299.7782    299.13816   -4022.9987     -1031686 
   79100     271.4652    301.34872    298.80318   -3827.1209   -1031701.5 
   79200    272.07137    298.53956    299.91833    -3409.163   -1031681.6 
   79300    273.70583    301.88304    301.52069    -2880.022   -1031635.9 
   79400    273.63623    301.71258    301.45607   -2573.7811   -1031651.7 
   79500    271.85107    297.55863    299.77057   -2397.3861   -1031684.1 
   79600    272.18108    296.44479    300.32422   -2036.1001   -1031704.8 
   79700    272.10314    299.85408    299.78873   -1703.9051   -1031711.8 
   79800    271.97702    301.13095    299.46765   -1248.7971   -1031696.3 
   79900    273.11074    303.00621     300.6362   -797.73059   -1031670.5 
   80000    273.60295    301.13344    301.48919   -382.05616   -1031666.6 
   80100    272.38278    300.27821    300.08191   -492.38684   -1031694.7 
   80200    271.84375    299.10538     299.5625   -652.05963   -1031711.2 
   80300    272.17458    301.60153    299.65278   -1038.4447     -1031707 
   80400    271.67816    300.95808    299.11825   -1557.9434   -1031689.5 
   80500    273.21559    305.11132    300.49578   -1623.0212   -1031661.9 
   80600    273.60508    307.01378    300.73539   -1981.6822   -1031647.1 
   80700    272.67058    304.75139    299.86437   -2372.6796   -1031672.8 
   80800    271.79801    303.20651    298.97805   -2795.3838   -1031703.4 
   80900    271.48509    298.70276    299.16829   -3417.9348   -1031707.5 
   81000    271.57322    299.38684    299.18989   -3609.7941   -1031685.1 
   81100    272.19742    300.51477    299.82099   -3908.2215   -1031669.6 
   81200    273.14668    301.24148    300.90792   -3926.2248   -1031656.2 
   81300    272.64656    304.44713    299.87364    -3723.693   -1031649.6 
   81400    272.52095    299.32484    300.37637   -3503.7671   -1031655.7 
   81500     272.6043    297.60259    300.70157   -3188.0962   -1031681.7 
   81600    271.67934    299.80211    299.26843   -3130.7693   -1031699.4 
   81700    272.32338    299.77329      300.073   -2691.2306   -1031697.8 
   81800     272.3652    302.86608    299.72715   -2367.0518     -1031687 
   81900    272.91653     302.4825    300.46207   -1993.9714   -1031663.2 
   82000    272.46724    296.58514    300.66202   -1603.0215   -1031667.9 
   82100    272.22519    298.19959    300.15335   -1328.2155   -1031698.7 
   82200    272.32867    297.17338    300.41403   -926.32423   -1031703.6 
   82300     272.0065     298.8284    299.80051   -559.44919   -1031704.8 
   82400    272.42257    301.81945    299.93313   -441.06913   -1031708.5 
   82500    272.49285    301.90272    300.00981   -598.39289   -1031708.9 
   82600    272.17296    298.40551     300.0619   -1018.7473   -1031697.1 
   82700    272.60652    295.41976    300.98512   -1217.7431   -1031685.9 
   82800     272.7489    299.46899    300.64129   -1748.2681   -1031686.9 
   82900    271.56914    296.57254    299.54684   -1909.8453   -1031707.6 
   83000    272.01678    299.89067    299.67664   -2432.3664   -1031711.3 
   83100    272.20103    300.29651    299.85355   -2887.7212   -1031701.2 
   83200    272.06629    297.10463     300.0966   -3241.9488   -1031690.1 
   83300    271.99797    295.58777    300.20677   -3522.4218   -1031686.6 
   83400    271.83061    297.61906    299.73735   -3937.4335   -1031678.2 
   83500    272.49171    301.84795    300.01544   -4069.8524   -1031661.5 
   83600    272.82291    299.93496    300.67337   -4121.2246   -1031637.6 
   83700    273.17517    299.79923    301.12887   -3570.5547   -1031633.4 
   83800    272.30269    300.09879     300.0054   -3287.6953   -1031664.8 
   83900    271.58211    298.46496    299.31953   -3007.5782   -1031686.4 
   84000    271.71092    300.41786    299.22848    -2642.667   -1031689.6 
   84100    272.72013     299.1787    300.64285   -2182.0045   -1031688.2 
   84200     272.0476    302.73205    299.34945   -1827.9639   -1031708.8 
   84300    271.59719    296.80072    299.55237   -1329.2534   -1031735.3 
   84400    272.03762    299.41043    299.76433   -958.54193   -1031727.1 
   84500    272.61138    299.78563    300.42955   -678.32416   -1031698.7 
   84600     272.5722    297.47191    300.67846   -354.73311   -1031696.4 
   84700    272.08823    298.65655    299.92425   -319.73866   -1031707.6 
   84800    271.89916    298.90421    299.65727   -896.02849   -1031719.7 
   84900     271.0191    299.69141    298.46165   -959.48464   -1031715.4 
   85000    272.72792    299.16761    300.65397   -1322.0636   -1031683.4 
   85100      273.034     299.1128    301.04163   -1828.7478   -1031680.3 
   85200    271.60952    297.84899    299.43286    -2257.623   -1031696.1 
   85300    271.52924    298.94395    299.19217   -2608.3263   -1031710.4 
   85400    271.19413    301.51913    298.44418   -3292.8384   -1031697.9 
   85500     272.5191    301.54821    300.08805   -3583.9885   -1031662.6 
   85600    271.97281    300.07885    299.59775   -3957.9747   -1031664.8 
   85700    272.25583    297.82503    300.23962   -4149.2031   -1031671.9 
   85800    272.24247    298.73257    300.10627   -4262.5011     -1031672 
   85900    272.77765    301.96667    300.35573   -3915.5809   -1031664.8 
   86000    273.01512    301.98004    300.64931   -3635.3676     -1031654 
   86100    272.51226    301.33409    300.10709   -3318.5649   -1031654.3 
   86200    272.34519    301.42734    299.88735   -2953.7118   -1031684.2 
   86300    271.37932    295.77737    299.41309   -2481.5856     -1031708 
   86400    271.37223    299.26567    298.95554   -1946.9626   -1031709.4 
   86500    272.49911    300.94927    300.14024   -1335.2216   -1031693.4 
   86600    273.35082    302.09087     301.0525   -788.77408   -1031663.6 
   86700    272.76078    301.15714    300.43889   -392.20327   -1031662.7 
   86800    272.30886    301.71559    299.80509   -226.36634   -1031695.3 
   86900     272.7251     301.8238    300.30876   -391.01954   -1031708.3 
   87000    272.50583    299.89509    300.28421   -596.20968     -1031712 
   87100    272.14541    298.63745    299.99781   -971.31256   -1031708.2 
   87200    272.51036    297.93117    300.54249   -1277.1474   -1031684.7 
   87300    272.74683    298.61997    300.74792   -1598.0792   -1031669.8 
   87400    272.94073    302.82739     300.4478   -2147.0993   -1031692.2 
   87500    271.90562    300.89867    299.40874   -2620.9277   -1031706.9 
   87600    271.69581    298.05025    299.51427   -3012.7715   -1031702.9 
   87700     272.0674    299.13714    299.83652   -3549.8342   -1031689.2 
   87800     272.2457    299.30509    300.03663   -3883.0868   -1031672.9 
   87900    272.70212    299.35009     300.5984   -4133.6042   -1031663.9 
   88000    271.80314    299.85628     299.4154   -4183.9375   -1031660.9 
   88100    272.48318    301.01051    300.11256   -3949.8671   -1031664.6 
   88200    271.80858    299.84925    299.42307   -3655.0429   -1031673.8 
   88300    271.72669    296.27693    299.78078   -3260.7087   -1031690.8 
   88400    271.89736    297.87284    299.78771   -2984.7445     -1031698 
   88500    272.45151    300.48438    300.14085   -2439.4543   -1031696.2 
   88600    271.96066    302.25971     299.3021    -2095.374   -1031701.8 
   88700    271.82394    302.01073    299.16412   -1689.2935     -1031709 
   88800    272.82186    300.49365    300.60019   -1120.3374     -1031709 
   88900    272.27408     296.5231     300.4298   -1010.6247   -1031700.7 
   89000    272.87451    299.86389    300.74668   -656.90204   -1031696.1 
   89100    272.59738    299.53132    300.44485   -470.39374   -1031702.5 
   89200    271.80265    298.05671    299.64629   -541.24174     -1031719 
   89300    271.48017    297.74714    299.28511   -854.35632   -1031712.8 
   89400    272.38395    300.67921    300.03178   -1190.2873   -1031695.6 
   89500    271.95786    299.00977    299.71669    -1440.311   -1031690.9 
   89600    272.67375    296.93019    300.87442   -2072.9774   -1031695.5 
   89700     271.9521    299.80117    299.60772    -2442.577   -1031692.4 
   89800    272.51319    302.50737    299.95732   -2845.7798     -1031682 
   89900    272.81873     302.2398    300.37168   -3358.6345   -1031680.8 
   90000    272.56491    298.26836    300.56694   -3449.8435   -1031674.6 
   90100    272.16605    297.41427    300.18082   -3885.8624   -1031638.7 
   90200    272.89442     299.8272    300.77616   -4027.3929   -1031647.1 
   90300    272.62019    302.59094    300.07962   -3713.5217   -1031660.8 
   90400    272.59461    302.72714     300.0303   -3536.0634   -1031671.6 
   90500    271.56722    299.83562    299.12469   -3138.0689   -1031682.4 
   90600    272.40236    297.73782    300.43306   -3190.5683     -1031680 
   90700    273.20547    299.64975    301.18578   -2752.9707   -1031656.5 
   90800    273.13338    300.45466    300.99259   -2398.6058   -1031655.8 
   90900    272.03581    301.28555    299.52087    -2067.266   -1031681.3 
   91000    272.70539    302.61824    300.18205   -1517.7595   -1031686.4 
   91100    272.34423    304.93002    299.43557    -1139.162   -1031688.1 
   91200    272.89745    303.75684    300.27442   -1071.4493   -1031702.7 
   91300    271.74595    299.43963    299.39789   -704.17394   -1031721.7 
   91400    271.69162    299.69329    299.29769   -906.55393   -1031729.3 
   91500    272.26764    297.54086    300.29086   -834.63047   -1031705.6 
   91600    272.63383    302.99601    300.04448   -972.66807   -1031677.8 
   91700    272.68324     301.3335    300.31979    -1161.135   -1031675.7 
   91800    271.49725     298.4914    299.21061   -1645.9938   -1031702.9 
   91900    272.07832    297.55549    300.05357   -2113.4089   -1031730.8 
   92000    271.12316    296.95524    298.94303    -2359.464     -1031734 
   92100    271.91277    299.63751    299.57987   -2850.1418   -1031693.7 
   92200    272.56043    303.12468    299.93665   -3365.9447   -1031667.3 
   92300    272.59505    298.42209    300.58464   -3495.2955   -1031658.3 
   92400    271.99636    296.68212      300.064   -3918.1116   -1031666.5 
   92500     272.4576    297.25461     300.5639   -3757.8785   -1031671.1 
   92600    271.30716     299.8604    298.79812    -3757.966   -1031685.5 
   92700    271.65897    299.58212     299.2714   -3505.3993   -1031691.7 
   92800    272.15192    300.14811    299.81157   -3060.8892   -1031679.5 
   92900    272.74442    299.70534    300.60531   -2824.5616     -1031653 
   93000    273.42363    301.29191    301.24582   -2648.2207   -1031661.7 
   93100    272.73368    299.64866    300.59925    -2439.377   -1031682.8 
   93200    271.97074    300.32988    299.56289   -1919.8713   -1031694.5 
   93300    273.26064    300.05912    301.20172   -1658.8232   -1031699.9 
   93400     271.5616    302.24507    298.80775   -1090.5733   -1031699.1 
   93500    271.81411    302.02333    299.15027   -653.37873   -1031711.3 
   93600     271.9968     300.0549    299.63068   -793.34194     -1031721 
   93700    271.71026    299.43354    299.35429   -738.15103   -1031700.1 
   93800    272.88692    299.67742     300.7861   -1024.2149   -1031684.4 
   93900    272.96122    299.71373    300.87382   -1127.7426   -1031680.7 
   94000    272.39118    302.39186    299.82045   -1379.0594   -1031694.7 
   94100    271.71412    301.42757    299.10258   -1796.0693   -1031714.9 
   94200    272.42155    303.48164    299.71803   -2019.3692   -1031714.1 
   94300    271.89186    298.24479    299.73303   -2325.8657   -1031701.3 
   94400    272.29785    300.60562    299.93418   -2648.9023   -1031688.9 
   94500    271.39661    298.29725    299.11044   -3151.4945   -1031681.8 
   94600    272.40893    299.79131    300.17707   -3597.3181   -1031677.4 
   94700    272.27011    299.59092    300.03022    -3691.567     -1031656 
   94800    273.45597     301.4379    301.26725   -3691.8381   -1031626.6 
   94900    272.35158    300.17328    300.05661   -3654.6139   -1031641.8 
   95000    272.51941    297.92735    300.55423   -3450.3364   -1031676.7 
   95100    272.44754    299.71072    300.23544   -3294.7777   -1031687.9 
   95200    271.45668    296.13538    299.46324   -2960.3941   -1031688.4 
   95300    272.29737    301.09533    299.87059   -2675.9367   -1031689.3 
   95400    272.08224    304.72739    299.13585   -2343.1439   -1031701.1 
   95500    271.83283    299.04999    299.55605   -2145.0147   -1031715.2 
   95600    272.14509    295.94482    300.34379   -1669.8928   -1031710.9 
   95700    273.27924    296.07761    301.73703   -1346.1854   -1031684.9 
   95800    272.81445    298.21019    300.88473   -743.67719   -1031676.8 
   95900    273.33358     302.8938    300.92777   -708.08876   -1031692.1 
   96000    272.31261    298.60799    300.20951   -716.37039     -1031702 
   96100    272.13052    301.13565    299.65792   -1049.1077   -1031711.1 
   96200    271.52912    297.68819    299.35356   -1128.7117   -1031714.2 
   96300    272.82644    298.07077    300.91757   -1475.5259   -1031692.2 
   96400    273.22119    300.82152    301.05459   -1614.8262   -1031666.8 
   96500    272.24884    299.89359    299.96483   -1933.7666   -1031672.3 
   96600    272.64321    299.99888    300.44169   -2386.0437   -1031707.6 
   96700    271.33005    298.19813    299.04041   -2621.2533   -1031714.6 
   96800    272.30013    296.33295    300.48665   -3269.9227   -1031696.8 
   96900    271.98726    301.99702    299.36897    -3588.843   -1031670.9 
   97000    272.09593    300.67844    299.67373   -3780.4965   -1031661.9 
   97100    272.36385    301.69152    299.87657   -3886.5331   -1031662.1 
   97200    273.00713    301.11717    300.75037   -3928.1428   -1031664.6 
   97300    271.65828    298.09362    299.46202   -3648.4182   -1031674.6 
   97400    272.18409    299.06007    299.99154   -3565.1933   -1031692.9 
   97500    272.03581    301.92509    299.43861   -3367.5927   -1031699.7 
   97600    272.49908    299.70654    300.30007   -2794.2651   -1031689.8 
   97700    272.42677    297.91991    300.43999   -2082.9543   -1031663.7 
   97800    272.72928    300.60501    300.47074   -1782.0831   -1031662.4 
   97900     272.1177    297.76597    300.07546   -1245.5633   -1031691.8 
   98000    271.89562    297.11074    299.88359   -930.83992   -1031704.5 
   98100    272.25517    301.02833    299.82674   -694.48934   -1031704.3 
   98200    272.50901    300.51691    300.20818   -566.74261   -1031697.8 
   98300    272.83838    302.95107    300.30462   -823.79074   -1031697.1 
   98400     271.7578     300.7349    299.24599   -642.68609   -1031698.7 
   98500    271.62455    300.00815    299.17379   -1038.7046   -1031696.8 
   98600    273.38533     300.8228    301.25854   -1207.4238   -1031691.5 
   98700    272.15271     299.9077    299.84348   -1652.8921   -1031697.4 
   98800    272.45051    300.08412     300.1911   -2128.6466   -1031715.5 
   98900    271.61359    300.24868    299.12922   -2807.8705   -1031714.6 
   99000    272.18661    302.88444    299.50271   -3232.7711     -1031683 
   99100    271.69581    299.55894    299.32019   -3518.8898     -1031676 
   99200    272.21387    298.51652    300.09849   -3908.3284     -1031675 
   99300    272.55029    300.38856    300.27602   -4003.8676   -1031661.8 
   99400    272.89873     298.1806    300.99333   -3902.6101   -1031641.7 
   99500    273.50487    302.69418    301.16645   -3713.5915   -1031641.3 
   99600    272.06172    302.33554    299.41801   -3579.4356   -1031675.9 
   99700     271.7105    299.03418    299.40596   -3255.2557   -1031688.6 
   99800    271.96706    296.61672    300.03597   -2868.5304   -1031692.1 
   99900    272.40543    299.20116    300.24862   -2400.8051   -1031691.8 
  100000    272.15763    300.81298    299.73315    -1969.911   -1031693.6 
Loop time of 7971.16 on 32 procs for 100000 steps with 163956 atoms

Performance: 1.084 ns/day, 22.142 hours/ns, 12.545 timesteps/s
50.2% CPU use with 32 MPI tasks x no OpenMP threads

MPI task timing breakdown:
Section |  min time  |  avg time  |  max time  |%varavg| %total
---------------------------------------------------------------
Pair    | 0.24662    | 2870.2     | 7645.1     |2656.2 | 36.01
Neigh   | 0.037849   | 18.423     | 47.727     | 208.4 |  0.23
Comm    | 1.554      | 1119.5     | 5348.1     |4880.9 | 14.04
Output  | 16.717     | 16.812     | 16.859     |   0.6 |  0.21
Modify  | 123.28     | 3908.1     | 7900.5     |3177.9 | 49.03
Other   |            | 38.18      |            |       |  0.48

Nlocal:    5123.62 ave 10251 max 0 min
Histogram: 2 0 0 0 14 14 0 0 0 2
Nghost:    3535.31 ave 4453 max 0 min
Histogram: 2 0 0 0 0 0 4 4 10 12
Neighs:    0 ave 0 max 0 min
Histogram: 32 0 0 0 0 0 0 0 0 0
FullNghs:  249634 ave 804350 max 0 min
Histogram: 2 0 14 14 0 0 0 0 0 2

Total # of neighbors = 7988298
Ave neighs/atom = 48.7222
Neighbor list builds = 1001
Dangerous builds = 0

print "Complete equilibration process"
Complete equilibration process

unfix 1
unfix 2
unfix 3
unfix 4
uncompute myCTtemp
uncompute myWPtemp

######################################
# DEFORMATION

# move the tool to closer

#displace_atoms gpCTall move -4.9 0 0

reset_timestep	0
timestep 0.0001

compute myCTmobtemp gpCTmob temp/partial 0 1 1
compute myWPmobtemp gpWPmob temp/partial 0 1 1
compute myCTTStemp gpCTtsbd temp
compute myWPTStemp gpWPtsbd temp/partial 0 1 1

# rescale the temperature of thermostatic boundaries to 300 K

fix 1 gpWPtsbd nvt temp 300.0 300.0 0.01 #iso 1.0 1.0 0.5
fix_modify 1 temp myWPTStemp
WARNING: Temperature for fix modify is not for group all (../fix_nh.cpp:1389)
fix 2 gpCTtsbd nvt temp 300.0 300.0 0.01 #iso 1.0 1.0 0.5
fix_modify 2 temp myCTTStemp
WARNING: Temperature for fix modify is not for group all (../fix_nh.cpp:1389)

fix 3 gpWPbd move linear 0 0 0
fix 4 gpCTbd move linear -1.0 0 0 units box  # cutting speed = v * 100 (m s^-1 in the x-direction)

group mobile union gpCTmob gpWPmob
131554 atoms in group mobile

fix 5 mobile nve

compute ke all ke/atom
fix 12 all ave/atom 10 50 500 c_ke

thermo 	500
thermo_style custom step c_myCTmobtemp c_myCTTStemp c_myWPmobtemp c_myWPTStemp press etotal fmax fnorm


# Output strain and stress info to file
# for units metal, pressure is in [bars] = 100 [kPa] = 1/10000 [GPa]
# p2, p3, p4 are in GPa

## Use cfg for AtomEye
#dump 		1 all cfg 2000 dump.cutsic_*.cfg id type xs ys zs c_csym


# Display thermo
dump	 0dumpCSP all custom  500 dump.cutsic.*.lammpstrj id type mol x y z vx vy vz f_12
dump_modify 0dumpCSP element C Si C

#write_restart cut_sic.restart.0000
#restart 1000 cut_sic.restart
run		1000
WARNING: One or more atoms are time integrated more than once (../modify.cpp:271)
Memory usage per processor = 9.23617 Mbytes
Step c_myCTmobtemp c_myCTTStemp c_myWPmobtemp c_myWPTStemp Press TotEng Fmax Fnorm 
       0    300.57106    297.05432    306.64937    241.74083    -1969.911   -1031693.6    7.7265048    710.15999 
     500    300.10778    301.40491    308.00865    292.23664   -1451.8527     -1031559    7.7395597    712.52271 
    1000    303.33111     302.2562    309.66772    301.00223   -933.61925   -1031499.7    9.1790995    712.83208 
Loop time of 79.7879 on 32 procs for 1000 steps with 163956 atoms

Performance: 0.108 ns/day, 221.633 hours/ns, 12.533 timesteps/s
49.8% CPU use with 32 MPI tasks x no OpenMP threads

MPI task timing breakdown:
Section |  min time  |  avg time  |  max time  |%varavg| %total
---------------------------------------------------------------
Pair    | 0.0021451  | 28.552     | 76.372     | 264.6 | 35.78
Neigh   | 0.00047374 | 0.18213    | 0.46863    |  20.6 |  0.23
Comm    | 0.015373   | 11.695     | 53.526     | 471.8 | 14.66
Output  | 0.38419    | 0.3844     | 0.38485    |   0.0 |  0.48
Modify  | 1.3393     | 38.578     | 78.829     | 316.4 | 48.35
Other   |            | 0.3962     |            |       |  0.50

Nlocal:    5123.62 ave 10249 max 0 min
Histogram: 2 0 0 0 14 14 0 0 0 2
Nghost:    3536.47 ave 4460 max 0 min
Histogram: 2 0 0 0 0 0 4 4 10 12
Neighs:    0 ave 0 max 0 min
Histogram: 32 0 0 0 0 0 0 0 0 0
FullNghs:  249661 ave 804588 max 0 min
Histogram: 2 0 14 14 0 0 0 0 0 2

Total # of neighbors = 7989152
Ave neighs/atom = 48.7274
Neighbor list builds = 10
Dangerous builds = 0

######################################
# SIMULATION DONE
print "All done" 
All done
Total wall time: 2:14:11
