LAMMPS (17 Nov 2016)
# Input file for nanocutting of Cubic SiC with a diamond tool
# Chris Fung, June 2013 (last update: Mar 219)

# ------------------------ GPU SETTINGS ----------------------------

#package cuda gpu/node 1 0
#package omp 2 force/neigh

# ------------------------ INITIALIZATION ----------------------------
units 		metal
dimension	3
boundary	s	s	p
atom_style	atomic

variable a equal 4.3674
variable b equal 3.5716
variable c equal $a/$b
variable c equal 4.3674/$b
variable c equal 4.3674/3.5716
variable dx equal 70*$c
variable dx equal 70*1.22281330496136
variable dy equal 10*$c
variable dy equal 10*1.22281330496136
variable dx1 equal 11+${dx}
variable dx1 equal 11+85.5969313472952
variable dy1 equal ${dy}+11
variable dy1 equal 12.2281330496136+11
variable rx equal ${dx}+4
variable rx equal 85.5969313472952+4
variable ry equal ${dy}+4
variable ry equal 12.2281330496136+4
variable bx1 equal ${dx1}-1
variable bx1 equal 96.5969313472952-1
variable bx2 equal ${bx1}-1
variable bx2 equal 95.5969313472952-1
variable by1 equal ${dy1}-1
variable by1 equal 23.2281330496136-1
variable by2 equal ${by1}-1
variable by2 equal 22.2281330496136-1

lattice fcc $a
lattice fcc 4.3674
Lattice spacing in x,y,z = 4.3674 4.3674 4.3674
region		whole block 0 99 0 27 0 18
create_box	3 whole
Created orthogonal box = (0 0 0) to (432.373 117.92 78.6132)
  8 by 2 by 2 MPI processor grid

# ----------------------- ATOM DEFINITION ----------------------------

# create C atoms for diamond tool
lattice diamond $b orient x 1 0 0 orient y 0 1 0 origin 0 0 0.4
lattice diamond 3.5716 orient x 1 0 0 orient y 0 1 0 origin 0 0 0.4
Lattice spacing in x,y,z = 3.5716 3.5716 3.5716

# define the shape, dimension, and initial position of cutting tool
region cut_toolB block ${dx} ${dx1} ${dy} ${dy1} INF INF
region cut_toolB block 85.5969313472952 ${dx1} ${dy} ${dy1} INF INF
region cut_toolB block 85.5969313472952 96.5969313472952 ${dy} ${dy1} INF INF
region cut_toolB block 85.5969313472952 96.5969313472952 12.2281330496136 ${dy1} INF INF
region cut_toolB block 85.5969313472952 96.5969313472952 12.2281330496136 23.2281330496136 INF INF
region cut_toolR cylinder z ${rx} ${ry}  4 INF INF
region cut_toolR cylinder z 89.5969313472952 ${ry}  4 INF INF
region cut_toolR cylinder z 89.5969313472952 16.2281330496136  4 INF INF
region trimbox1 block ${dx} ${rx} ${dy} ${ry} INF INF side out
region trimbox1 block 85.5969313472952 ${rx} ${dy} ${ry} INF INF side out
region trimbox1 block 85.5969313472952 89.5969313472952 ${dy} ${ry} INF INF side out
region trimbox1 block 85.5969313472952 89.5969313472952 12.2281330496136 ${ry} INF INF side out
region trimbox1 block 85.5969313472952 89.5969313472952 12.2281330496136 16.2281330496136 INF INF side out
region cut_toolTr intersect 2 cut_toolB trimbox1
region cut_tool union 2 cut_toolTr cut_toolR

region trimbox2 prism 4.35 15.65 0 1 INF INF 6 0 0

#define boundaries of cutting tool
region ctTop block ${dx} ${dx1} ${by1} ${dy1} INF INF
region ctTop block 85.5969313472952 ${dx1} ${by1} ${dy1} INF INF
region ctTop block 85.5969313472952 96.5969313472952 ${by1} ${dy1} INF INF
region ctTop block 85.5969313472952 96.5969313472952 22.2281330496136 ${dy1} INF INF
region ctTop block 85.5969313472952 96.5969313472952 22.2281330496136 23.2281330496136 INF INF
region ctxEnd block ${bx1} ${dx1} ${dy} ${dy1} INF INF
region ctxEnd block 95.5969313472952 ${dx1} ${dy} ${dy1} INF INF
region ctxEnd block 95.5969313472952 96.5969313472952 ${dy} ${dy1} INF INF
region ctxEnd block 95.5969313472952 96.5969313472952 12.2281330496136 ${dy1} INF INF
region ctxEnd block 95.5969313472952 96.5969313472952 12.2281330496136 23.2281330496136 INF INF
region ctTSbottom block ${dx} ${bx1} ${by2} ${by1} INF INF
region ctTSbottom block 85.5969313472952 ${bx1} ${by2} ${by1} INF INF
region ctTSbottom block 85.5969313472952 95.5969313472952 ${by2} ${by1} INF INF
region ctTSbottom block 85.5969313472952 95.5969313472952 21.2281330496136 ${by1} INF INF
region ctTSbottom block 85.5969313472952 95.5969313472952 21.2281330496136 22.2281330496136 INF INF
region ctTSxEnd block ${bx2} ${bx1} ${dy} ${by1} INF INF
region ctTSxEnd block 94.5969313472952 ${bx1} ${dy} ${by1} INF INF
region ctTSxEnd block 94.5969313472952 95.5969313472952 ${dy} ${by1} INF INF
region ctTSxEnd block 94.5969313472952 95.5969313472952 12.2281330496136 ${by1} INF INF
region ctTSxEnd block 94.5969313472952 95.5969313472952 12.2281330496136 22.2281330496136 INF INF
region ctbound union 2 ctTop ctxEnd
region ctTSbound union 2 ctTSbottom ctTSxEnd

# create C atoms of diamond tool and make a nano-groove on the flank face
create_atoms 1 region cut_tool
Created 20658 atoms


delete_atoms region trimbox2
Deleted 0 atoms, new total = 20658


group gpCTall region  cut_tool
20658 atoms in group gpCTall
group gpCTbd  region  ctbound
3696 atoms in group gpCTbd
group gpCTtsbd  region  ctTSbound
3344 atoms in group gpCTtsbd
group gpCTmob subtract gpCTall gpCTbd gpCTtsbd
13618 atoms in group gpCTmob
group gpCTeq subtract gpCTall gpCTbd
16962 atoms in group gpCTeq



print "diamond tool created"
diamond tool created
#------------------------------------------------------------

# define the lattice of cubic SiC (two atom types form two interpenetrating face-centered cubic lattices)

# define the shape and dimension of the workpiece
lattice fcc $a origin 0 0 0 orient x 1 0 0 orient y 0 1 0
lattice fcc 4.3674 origin 0 0 0 orient x 1 0 0 orient y 0 1 0
Lattice spacing in x,y,z = 4.3674 4.3674 4.3674

# define the boundaries for workpiece
region workpiece block 0 65 0 15 INF INF
region wpbottom block 0 65 0 1 INF INF
region wpxEnd block 0 1 0 15 INF INF
region wpTSbottom block 1 65 1 2 INF INF
region wpTSxEnd block 1 2 1 15 INF INF
region wpbound union 2 wpbottom wpxEnd
region wpTSbound union 2 wpTSbottom wpTSxEnd

# create Si atoms for SiC workpiece
create_atoms	2 region workpiece
Created 73098 atoms

# offset origin for 1/4 unit cell for C atoms
lattice fcc $a origin 0.25 0.25 0.25 orient x 1 0 0 orient y 0 1 0
lattice fcc 4.3674 origin 0.25 0.25 0.25 orient x 1 0 0 orient y 0 1 0
Lattice spacing in x,y,z = 4.3674 4.3674 4.3674
create_atoms	3 region workpiece
Created 70200 atoms


# groups atoms
group gpWPall region workpiece
143298 atoms in group gpWPall
group gpWPbd region wpbound
14274 atoms in group gpWPbd
group gpWPtsbd region wpTSbound
13914 atoms in group gpWPtsbd
group gpWPmob subtract gpWPall gpWPbd gpWPtsbd
117936 atoms in group gpWPmob



print "Workpiece created"
Workpiece created

#-------------------------------------------------


# define the mass of atoms
mass 1 12 #.0107 # C (g/mol)
mass 2 28 #.0855 # Si (g/mol)
mass 3 12 #.0107 # C (g/mol)

#group Si type 2
#group C type 1 3

lattice fcc 4.3667 origin 0 0 0
Lattice spacing in x,y,z = 4.3667 4.3667 4.3667


# ------------------------ FORCE FIELDS ------------------------------

pair_style	tersoff
pair_coeff	* * SiC_Erhart-Albe.tersoff C Si C

# ------------------------- SETTINGS ---------------------------------
######################################
# EQUILIBRATION

# set temperature at 300 K

group gpCTeq union gpCTmob gpCTtsbd
16962 atoms in group gpCTeq
group gpWPeq union gpWPmob gpWPtsbd
131850 atoms in group gpWPeq

compute myCTtemp gpCTeq temp
compute myWPtemp gpWPeq temp
velocity all create 300 102456 dist uniform

fix 1 gpCTeq nvt temp 300.0 300.0 0.05 # aniso 1.0 1.0 0.5
fix_modify 1 temp myCTtemp
WARNING: Temperature for fix modify is not for group all (../fix_nh.cpp:1389)
fix 2 gpWPeq nvt temp 300.0 300.0 0.05 # aniso 1.0 1.0 0.5
fix_modify 2 temp myWPtemp
WARNING: Temperature for fix modify is not for group all (../fix_nh.cpp:1389)

reset_timestep	0
timestep 0.001 # set 1 femtosecond per step

fix 3 gpWPbd move linear 0 0 0
fix 4 gpCTbd move linear 0 0 0

fix 10 all balance 100 0.9 shift xy 10 1.05 out tmp.balance
fix 13 all property/atom mol ghost yes

set group gpCTmob mol 1
  13618 settings made for mol
set group gpCTtsbd mol 2
  3344 settings made for mol
set group gpCTbd mol 3
  3696 settings made for mol

set group gpWPmob mol 4
  117936 settings made for mol
set group gpWPtsbd mol 5
  13914 settings made for mol
set group gpWPbd mol 6
  14274 settings made for mol


# Display thermo

thermo 	100
#compute		eCSP all centro/atom fcc
#compute atomke all ke/atom
dump	 e0dumpCSP all custom 500 dump.cutsic_eq.*.lammpstrj id type mol element x y z vx vy vz # c_atomke
dump_modify e0dumpCSP element C Si C

# backup initial state and every 1000 steps
#write_restart cut_sic_eq.restart.0000.*.mpiio
#restart 1000 cut_sic_eq.restart.*.mpiio



# Run for at least 10 picosecond
print "start run equilibration"
start run equilibration


run 100000
WARNING: One or more atoms are time integrated more than once (../modify.cpp:271)
Neighbor list info ...
  1 neighbor list requests
  update every 1 steps, delay 10 steps, check yes
  max neighbors/atom: 2000, page size: 100000
  master list distance cutoff = 4.96
  ghost atom cutoff = 4.96
  binsize = 2.48 -> bins = 175 48 32
Memory usage per processor = 7.07908 Mbytes
Step Temp E_pair E_mol TotEng Press Volume 
       0          300   -1041609.4            0   -1035251.6   -10830.125    2226946.9 
     100    151.55709   -1038523.7            0   -1035311.8   -5475.0994    2226946.9 
     200     194.5426   -1038534.5            0   -1034411.6   -3233.5745    2226946.9 
     300    234.10513   -1038377.7            0   -1033416.3   -2340.1956    2226946.9 
     400    250.10361   -1037763.7            0   -1032463.3   -2065.0601    2226946.9 
     500    257.81505   -1037193.8            0     -1031730   -1543.5757    2226946.9 
     600    273.54519   -1037199.6            0   -1031402.4   -724.55973    2226946.9 
     700    275.02331   -1037454.6            0   -1031626.1    -1295.411    2226946.9 
     800    272.12016   -1037490.1            0   -1031723.1   -1330.1954    2226946.9 
     900    270.33994   -1037299.4            0   -1031570.1   -856.46207    2226946.9 
    1000     273.3761   -1037450.2            0   -1031656.5   -1119.3191    2226946.9 
    1100    274.38851   -1037551.8            0   -1031736.7   -815.81432    2226946.9 
    1200    274.02725   -1037444.4            0   -1031636.9   -1752.2081    2226946.9 
    1300     272.5085   -1037425.5            0   -1031650.2   -2067.6802    2226946.9 
    1400    269.72694   -1037433.2            0     -1031717   -3012.3267    2226946.9 
    1500    273.72518   -1037439.8            0   -1031638.8   -3398.5402    2226946.9 
    1600    273.17877   -1037429.8            0   -1031640.3   -3228.9803    2226946.9 
    1700    269.86037   -1037432.4            0   -1031713.3   -3750.0167    2226946.9 
    1800    271.41469   -1037407.3            0   -1031655.3   -3617.3936    2226946.9 
    1900    273.96093   -1037431.8            0   -1031625.8   -3756.8255    2226946.9 
    2000    271.93423   -1037466.2            0   -1031703.1   -3541.9162    2226946.9 
    2100    271.68208   -1037433.1            0   -1031675.4   -3562.5498    2226946.9 
    2200    272.60115   -1037397.3            0   -1031620.1   -3833.4419    2226946.9 
    2300    272.11653   -1037452.3            0   -1031685.4   -3854.3179    2226946.9 
    2400    271.41224   -1037456.2            0   -1031704.3   -2781.1859    2226946.9 
    2500    272.36005   -1037433.6            0   -1031661.5   -1833.9169    2226946.9 
    2600    272.41997   -1037464.3            0   -1031690.9   -1328.9115    2226946.9 
    2700    271.08645     -1037465            0   -1031719.9   -1108.1676    2226946.9 
    2800     272.5073     -1037456            0   -1031680.8   -987.06386    2226946.9 
    2900    272.90353   -1037463.6            0     -1031680   -1232.8073    2226946.9 
    3000    271.42286   -1037457.9            0   -1031705.7   -1178.0665    2226946.9 
    3100    272.38487   -1037463.1            0   -1031690.5   -1242.6975    2226946.9 
    3200    273.21857   -1037476.8            0   -1031686.5   -790.47332    2226946.9 
    3300     272.1061     -1037482            0   -1031715.3   -701.74861    2226946.9 
    3400    272.41567   -1037472.1            0   -1031698.9   -556.42867    2226946.9 
    3500    271.38267   -1037441.1            0   -1031689.7   -2072.9444    2226946.9 
    3600    272.44715   -1037469.3            0   -1031695.4   -2577.9416    2226946.9 
    3700    272.87453   -1037454.5            0   -1031671.5   -2921.8836    2226946.9 
    3800    271.65171   -1037425.1            0     -1031668    -3167.283    2226946.9 
    3900    272.55082     -1037461            0   -1031684.9   -3220.7468    2226946.9 
    4000    273.04503   -1037455.5            0   -1031668.9   -3092.8851    2226946.9 
    4100    272.38103   -1037439.8            0   -1031667.3   -3469.4046    2226946.9 
    4200    272.61883   -1037448.7            0   -1031671.2    -3725.644    2226946.9 
    4300    272.15277   -1037445.8            0   -1031678.1   -3794.7095    2226946.9 
    4400    272.59568   -1037437.1            0   -1031660.1   -3622.2319    2226946.9 
    4500    272.44855   -1037447.6            0   -1031673.6   -3770.6614    2226946.9 
    4600    272.97405   -1037456.2            0   -1031671.1   -2803.0031    2226946.9 
    4700    271.85804   -1037450.8            0   -1031689.3   -2308.4202    2226946.9 
    4800    271.91881   -1037466.8            0   -1031704.1     -1672.43    2226946.9 
    4900    271.62175   -1037443.5            0   -1031687.1   -1535.6784    2226946.9 
    5000    271.28617   -1037449.6            0   -1031700.2   -1612.8889    2226946.9 
    5100    271.96724   -1037468.9            0   -1031705.1   -1293.1086    2226946.9 
    5200    272.48733   -1037461.9            0   -1031687.1   -1308.4255    2226946.9 
    5300    271.94079   -1037447.9            0   -1031684.8   -1144.4171    2226946.9 
    5400    272.12689   -1037479.4            0   -1031712.2   -1068.4996    2226946.9 
    5500     271.7225   -1037463.1            0   -1031704.5   -1080.2144    2226946.9 
    5600    272.59907   -1037449.2            0     -1031672   -831.64689    2226946.9 
    5700     271.0275   -1037457.6            0   -1031713.8   -1320.7078    2226946.9 
    5800    272.20862   -1037463.1            0   -1031694.2   -1996.7718    2226946.9 
    5900    273.23856   -1037446.9            0   -1031656.2   -2923.6082    2226946.9 
    6000    271.62115     -1037438            0   -1031681.6   -3117.4665    2226946.9 
    6100    272.04075   -1037454.5            0   -1031689.2   -3260.3118    2226946.9 
    6200    273.12021   -1037444.9            0   -1031656.7   -3323.4255    2226946.9 
    6300    271.63894   -1037435.2            0   -1031678.4   -3288.0764    2226946.9 
    6400    272.27332   -1037458.2            0   -1031687.9   -3253.2836    2226946.9 
    6500    272.58732   -1037429.1            0   -1031652.2   -3471.4764    2226946.9 
    6600    272.35806   -1037434.8            0   -1031662.7   -3634.4989    2226946.9 
    6700    271.21499   -1037437.5            0   -1031689.6   -3791.5281    2226946.9 
    6800    272.79643     -1037429            0   -1031647.7   -3607.1406    2226946.9 
    6900    272.57781     -1037443            0   -1031666.3   -2497.4829    2226946.9 
    7000      271.024   -1037471.5            0   -1031727.8   -1969.4015    2226946.9 
    7100    272.92452   -1037455.1            0     -1031671   -1347.1784    2226946.9 
    7200    272.55986   -1037449.4            0     -1031673   -1153.9829    2226946.9 
    7300    270.95026   -1037473.3            0   -1031731.1   -1362.2603    2226946.9 
    7400    272.66599   -1037459.6            0   -1031681.1   -1586.1694    2226946.9 
    7500    273.52902   -1037457.5            0   -1031660.6   -1529.1395    2226946.9 
    7600    271.52832     -1037483            0   -1031728.5   -1219.8331    2226946.9 
    7700    272.08009   -1037466.4            0   -1031700.2   -1013.2677    2226946.9 
    7800    272.98729   -1037452.9            0   -1031667.5   -1028.3822    2226946.9 
    7900    271.43387   -1037475.2            0   -1031722.8   -960.87189    2226946.9 
    8000    271.35201   -1037454.7            0     -1031704   -1891.1812    2226946.9 
    8100    273.45928   -1037447.1            0   -1031651.7   -2334.1655    2226946.9 
    8200    271.85937   -1037460.9            0   -1031699.4   -3037.3459    2226946.9 
    8300    271.50504   -1037439.5            0   -1031685.6    -2972.923    2226946.9 
    8400    273.46169   -1037444.1            0   -1031648.7   -2855.4522    2226946.9 
    8500    272.23358     -1037453            0   -1031683.6   -3207.1896    2226946.9 
    8600     271.5423   -1037436.4            0   -1031681.7   -3115.7134    2226946.9 
    8700    272.82268     -1037421            0   -1031639.1   -3157.9931    2226946.9 
    8800    272.22781   -1037449.4            0   -1031680.1   -3504.7778    2226946.9 
    8900    271.96692   -1037457.7            0     -1031694   -3606.5892    2226946.9 
    9000    273.17412   -1037422.5            0   -1031633.2   -3959.8975    2226946.9 
    9100    271.86476   -1037437.8            0   -1031676.2   -3405.7625    2226946.9 
    9200    271.45605   -1037475.4            0   -1031722.5   -2938.0631    2226946.9 
    9300    273.75718   -1037457.2            0   -1031655.5   -2137.6152    2226946.9 
    9400     273.0412     -1037453            0   -1031666.5   -1692.9796    2226946.9 
    9500    271.83875   -1037492.2            0   -1031731.2   -1481.5769    2226946.9 
    9600    273.28246   -1037475.7            0   -1031684.1   -1185.3297    2226946.9 
    9700    273.10918   -1037446.9            0     -1031659   -1300.2622    2226946.9 
    9800    271.65744   -1037476.8            0   -1031719.6   -1199.7887    2226946.9 
    9900    272.21488   -1037469.2            0   -1031700.2   -1050.6696    2226946.9 
   10000    273.20118   -1037469.2            0   -1031679.3   -906.21723    2226946.9 
   10100      272.532   -1037485.4            0   -1031709.7   -589.21955    2226946.9 
   10200    272.23347   -1037483.9            0   -1031714.5   -1085.3526    2226946.9 
   10300    271.81338     -1037437            0   -1031676.5   -1670.4679    2226946.9 
   10400    272.45603   -1037460.6            0   -1031686.5   -2655.7656    2226946.9 
   10500    272.93348   -1037469.8            0   -1031685.6   -3070.1666    2226946.9 
   10600    272.21611   -1037431.4            0   -1031662.4   -3041.3886    2226946.9 
   10700    272.11785   -1037454.2            0   -1031687.3   -3070.2768    2226946.9 
   10800     271.6994   -1037436.7            0   -1031678.6    -2849.924    2226946.9 
   10900    272.38507   -1037434.5            0   -1031661.9   -3151.6705    2226946.9 
   11000    272.62971   -1037455.3            0   -1031677.5   -3583.5628    2226946.9 
   11100     272.6887   -1037457.8            0   -1031678.7   -3949.3522    2226946.9 
   11200    272.34016   -1037420.1            0   -1031648.5   -3857.0629    2226946.9 
   11300    272.36658   -1037439.3            0   -1031667.1   -3762.7117    2226946.9 
   11400    272.35764   -1037469.4            0   -1031697.4    -2890.085    2226946.9 
   11500    271.65351   -1037451.2            0   -1031694.1   -2316.2505    2226946.9 
   11600    272.63218   -1037458.8            0   -1031680.9   -1709.6816    2226946.9 
   11700    271.97281   -1037470.9            0     -1031707   -1816.9109    2226946.9 
   11800    272.41363   -1037468.8            0   -1031695.6   -1534.9984    2226946.9 
   11900    272.51694   -1037456.9            0   -1031681.5   -1360.4986    2226946.9 
   12000    271.37745   -1037460.9            0   -1031709.7   -1135.6884    2226946.9 
   12100    272.13982     -1037462            0   -1031694.5   -936.30149    2226946.9 
   12200    272.71624   -1037471.1            0   -1031691.4   -830.24752    2226946.9 
   12300    271.23516   -1037474.9            0   -1031726.7   -747.05613    2226946.9 
   12400    272.39204     -1037468            0   -1031695.2   -645.56438    2226946.9 
   12500    272.91493   -1037462.2            0   -1031678.4   -1159.9835    2226946.9 
   12600    271.32369   -1037472.1            0     -1031722   -1852.5562    2226946.9 
   12700    272.56678   -1037443.7            0   -1031667.2   -2749.1858    2226946.9 
   12800    272.44698   -1037419.6            0   -1031645.6    -2822.208    2226946.9 
   12900    271.38871   -1037458.3            0   -1031706.8   -3286.5987    2226946.9 
   13000    272.96021   -1037455.9            0   -1031671.1   -3339.7869    2226946.9 
   13100    272.40875   -1037412.3            0   -1031639.2   -3099.6437    2226946.9 
   13200    271.63002   -1037444.4            0   -1031687.7    -3501.323    2226946.9 
   13300     272.4525   -1037457.3            0   -1031683.3   -3659.2201    2226946.9 
   13400     272.9518   -1037424.2            0   -1031639.5   -3576.9153    2226946.9 
   13500    272.27826   -1037453.6            0   -1031683.2   -3951.6831    2226946.9 
   13600     272.2131   -1037452.2            0   -1031683.2   -3405.5879    2226946.9 
   13700    273.85715   -1037458.6            0   -1031654.8   -2529.4709    2226946.9 
   13800    272.10515   -1037463.8            0   -1031697.2   -1683.9846    2226946.9 
   13900    271.86869   -1037472.7            0   -1031711.1   -1518.8358    2226946.9 
   14000     272.7042   -1037456.5            0   -1031677.1   -1029.9007    2226946.9 
   14100    272.24269   -1037462.8            0   -1031693.2    -1416.363    2226946.9 
   14200    272.13265   -1037478.4            0   -1031711.1   -1192.1101    2226946.9 
   14300    272.81899   -1037471.9            0   -1031690.1   -1198.0307    2226946.9 
   14400    272.00435   -1037459.4            0   -1031694.9   -892.24292    2226946.9 
   14500    272.34489   -1037480.7            0   -1031708.9   -827.41816    2226946.9 
   14600     272.5301   -1037472.2            0   -1031696.5    -717.2983    2226946.9 
   14700    273.30096   -1037493.3            0   -1031701.3   -959.85814    2226946.9 
   14800    271.85822   -1037471.1            0   -1031709.6   -1884.9567    2226946.9 
   14900    272.85878   -1037455.6            0   -1031672.9   -2638.2046    2226946.9 
   15000    272.30299     -1037448            0   -1031677.2   -2767.5194    2226946.9 
   15100    271.26468   -1037457.3            0   -1031708.4   -3219.7308    2226946.9 
   15200    272.13853   -1037431.2            0   -1031663.8   -3353.8333    2226946.9 
   15300    272.20209   -1037433.2            0   -1031664.5   -3381.1566    2226946.9 
   15400    271.02335   -1037436.3            0   -1031692.6   -3684.0516    2226946.9 
   15500    271.97681   -1037421.9            0   -1031657.9   -3738.3262    2226946.9 
   15600    272.55118   -1037429.2            0   -1031653.1   -3662.9441    2226946.9 
   15700    271.70073   -1037456.9            0   -1031698.8   -3603.5555    2226946.9 
   15800    272.47014     -1037437            0   -1031662.6   -3447.1984    2226946.9 
   15900    273.07176   -1037453.5            0   -1031666.4   -3021.5181    2226946.9 
   16000    271.80338   -1037471.4            0   -1031711.1   -2262.0849    2226946.9 
   16100    272.70944   -1037474.1            0   -1031694.6   -1789.9798    2226946.9 
   16200    273.06466   -1037446.3            0   -1031659.2   -1452.9156    2226946.9 
   16300    272.19052   -1037479.9            0   -1031711.4    -1223.763    2226946.9 
   16400    272.75278   -1037480.2            0   -1031699.8   -1024.9951    2226946.9 
   16500    272.49456   -1037439.3            0   -1031664.4   -866.71728    2226946.9 
   16600    272.73612     -1037486            0     -1031706   -863.65451    2226946.9 
   16700     272.7641     -1037470            0   -1031689.4   -928.42407    2226946.9 
   16800    272.80971   -1037462.8            0   -1031681.2   -882.24885    2226946.9 
   16900    271.97441   -1037476.4            0   -1031712.5   -957.84917    2226946.9 
   17000     272.6739   -1037463.5            0   -1031684.7   -1333.1574    2226946.9 
   17100    271.89137     -1037446            0   -1031683.8   -2097.2718    2226946.9 
   17200      271.459   -1037449.9            0   -1031696.9   -2917.6463    2226946.9 
   17300    273.13736   -1037432.2            0   -1031643.6   -3201.3863    2226946.9 
   17400    272.38819     -1037434            0   -1031661.3   -3408.8993    2226946.9 
   17500    272.05549   -1037449.1            0   -1031683.5   -3315.5657    2226946.9 
   17600    272.16315   -1037453.9            0     -1031686   -3368.9409    2226946.9 
   17700    273.48724   -1037437.4            0   -1031641.4   -3371.8371    2226946.9 
   17800    271.59869   -1037445.5            0   -1031689.6   -3664.0694    2226946.9 
   17900    270.82863   -1037424.3            0   -1031684.6   -3818.9582    2226946.9 
   18000    272.86914   -1037441.8            0     -1031659   -3366.2422    2226946.9 
   18100    272.44677   -1037441.3            0   -1031667.4   -3242.5487    2226946.9 
   18200    271.96651   -1037452.4            0   -1031688.7   -2491.8611    2226946.9 
   18300    272.87449   -1037476.5            0   -1031693.5   -1737.5269    2226946.9 
   18400    272.66667     -1037449            0   -1031670.4   -1277.9766    2226946.9 
   18500    272.24736   -1037465.3            0   -1031695.6    -1430.338    2226946.9 
   18600    272.21905   -1037469.8            0   -1031700.7   -1527.4195    2226946.9 
   18700    273.31021   -1037461.7            0   -1031669.4    -1002.719    2226946.9 
   18800    272.28195   -1037468.2            0   -1031697.7   -1143.5386    2226946.9 
   18900    272.52777   -1037477.9            0   -1031702.3   -818.42912    2226946.9 
   19000    272.93033   -1037469.2            0     -1031685   -820.03684    2226946.9 
   19100    272.67768     -1037466            0   -1031687.2   -1334.7568    2226946.9 
   19200    271.23815   -1037451.4            0   -1031703.1   -1464.1744    2226946.9 
   19300    272.89222   -1037461.3            0     -1031678   -1786.6422    2226946.9 
   19400    271.36613   -1037459.7            0   -1031708.6   -2728.1186    2226946.9 
   19500    272.70802   -1037461.1            0   -1031681.7   -3168.9473    2226946.9 
   19600    272.48628   -1037427.8            0   -1031653.1   -3164.1139    2226946.9 
   19700     272.2073   -1037469.4            0   -1031700.6   -3260.2384    2226946.9 
   19800    271.76911   -1037444.5            0   -1031684.9   -3325.1375    2226946.9 
   19900    272.37163   -1037438.1            0   -1031665.8   -3107.8401    2226946.9 
   20000    271.59676   -1037441.3            0   -1031685.4   -3366.0242    2226946.9 
   20100     271.4448   -1037451.5            0   -1031698.9   -3150.3258    2226946.9 
   20200    272.85614   -1037432.9            0   -1031650.3   -3078.0991    2226946.9 
   20300    271.08022   -1037436.9            0   -1031691.9   -3147.1711    2226946.9 
   20400    272.51861   -1037478.5            0     -1031703   -2905.9672    2226946.9 
   20500    272.63166   -1037439.2            0   -1031661.4   -2238.5177    2226946.9 
   20600    271.78718   -1037461.7            0   -1031701.8   -1552.0615    2226946.9 
   20700    271.57111   -1037465.1            0   -1031709.7    -1216.989    2226946.9 
   20800    273.21115   -1037457.3            0   -1031667.2   -1268.9999    2226946.9 
   20900     271.9539   -1037454.2            0   -1031690.7   -1247.9983    2226946.9 
   21000     272.1234   -1037485.3            0   -1031718.2   -1497.6372    2226946.9 
   21100    272.43604   -1037455.9            0   -1031682.2   -1338.5576    2226946.9 
   21200    272.30744   -1037452.8            0   -1031681.9   -1238.2917    2226946.9 
   21300    271.11912   -1037459.2            0   -1031713.4   -1326.6438    2226946.9 
   21400    273.52382   -1037477.1            0   -1031680.4   -1186.3652    2226946.9 
   21500    272.34402   -1037460.7            0   -1031688.9   -1366.3623    2226946.9 
   21600     271.4068   -1037468.8            0     -1031717   -2426.8996    2226946.9 
   21700    273.36881   -1037460.8            0   -1031667.4   -3016.0643    2226946.9 
   21800    272.44253   -1037459.2            0   -1031685.4   -2980.5745    2226946.9 
   21900     271.4049   -1037476.8            0   -1031724.9   -3180.7033    2226946.9 
   22000    272.55378     -1037446            0   -1031669.8   -3087.9228    2226946.9 
   22100    271.98079   -1037435.1            0     -1031671   -3084.1051    2226946.9 
   22200    272.53508   -1037449.1            0   -1031673.3    -3348.376    2226946.9 
   22300    271.54777   -1037436.6            0   -1031681.7    -3358.792    2226946.9 
   22400     271.9149   -1037426.5            0   -1031663.8   -3211.2026    2226946.9 
   22500    272.68016   -1037447.5            0   -1031668.7   -3124.8792    2226946.9 
   22600    272.38996   -1037446.9            0   -1031674.2   -2997.4068    2226946.9 
   22700    272.58685   -1037457.9            0     -1031681    -2605.137    2226946.9 
   22800    272.21709   -1037463.5            0   -1031694.5    -1921.672    2226946.9 
   22900    271.81242   -1037472.7            0   -1031712.3   -1707.4025    2226946.9 
   23000     273.2551   -1037479.6            0   -1031688.6   -1532.4083    2226946.9 
   23100    271.63235   -1037461.9            0   -1031705.2   -1459.5595    2226946.9 
   23200    271.98484   -1037484.9            0   -1031720.8   -1436.1434    2226946.9 
   23300    272.58938   -1037462.1            0   -1031685.2   -1517.8136    2226946.9 
   23400    273.08563   -1037476.5            0     -1031689   -1355.9453    2226946.9 
   23500    271.43611   -1037468.2            0   -1031715.7     -1456.74    2226946.9 
   23600    271.94965   -1037461.5            0   -1031698.1   -1394.8565    2226946.9 
   23700     273.2279   -1037481.9            0   -1031691.4   -1124.0877    2226946.9 
   23800    271.63554   -1037467.3            0   -1031710.6   -1545.6015    2226946.9 
   23900    271.80041   -1037454.2            0     -1031694   -2141.6623    2226946.9 
   24000    272.16402   -1037446.1            0   -1031678.1   -2557.2292    2226946.9 
   24100      271.638   -1037458.4            0   -1031701.6   -3027.0232    2226946.9 
   24200     270.8662   -1037437.5            0   -1031697.1   -3020.5708    2226946.9 
   24300    271.33809   -1037422.5            0   -1031672.1   -2854.1667    2226946.9 
   24400    271.59226   -1037464.1            0   -1031708.3   -3154.8668    2226946.9 
   24500    272.36101   -1037450.1            0     -1031678   -3331.2922    2226946.9 
   24600    272.03656   -1037428.9            0   -1031663.7   -3231.0216    2226946.9 
   24700    271.60542   -1037462.6            0   -1031706.5    -3343.643    2226946.9 
   24800    271.54167     -1037431            0   -1031676.2   -3707.2231    2226946.9 
   24900    272.99757     -1037458            0   -1031672.4   -3156.1708    2226946.9 
   25000    271.96025   -1037459.2            0   -1031695.6   -2424.2435    2226946.9 
   25100    272.32856   -1037463.8            0   -1031692.4   -1786.9287    2226946.9 
   25200    272.14735   -1037455.1            0   -1031687.5   -1517.5729    2226946.9 
   25300    272.60395   -1037474.3            0   -1031697.1    -1562.593    2226946.9 
   25400    271.32264   -1037478.4            0   -1031728.3   -1701.5515    2226946.9 
   25500    272.48922   -1037471.3            0   -1031696.5   -1452.3716    2226946.9 
   25600    271.31784     -1037438            0     -1031688   -1378.0339    2226946.9 
   25700    271.90402   -1037485.1            0   -1031722.6   -1318.1051    2226946.9 
   25800    272.74823   -1037480.7            0   -1031700.4   -1227.3797    2226946.9 
   25900    272.02085   -1037468.1            0   -1031703.2    -1131.138    2226946.9 
   26000    271.68868   -1037473.4            0   -1031715.6   -1332.5192    2226946.9 
   26100    271.63407     -1037461            0   -1031704.3   -1992.3657    2226946.9 
   26200    272.08302   -1037454.1            0   -1031687.8   -2286.7156    2226946.9 
   26300    272.64054   -1037471.8            0   -1031693.7   -2683.9033    2226946.9 
   26400     273.2222   -1037446.7            0   -1031656.4   -2794.8195    2226946.9 
   26500    273.10801   -1037484.1            0   -1031696.2   -2859.4693    2226946.9 
   26600    272.17303   -1037459.7            0   -1031691.5   -3105.4765    2226946.9 
   26700     273.4033   -1037457.2            0     -1031663   -3211.5793    2226946.9 
   26800    272.21138     -1037448            0   -1031679.1   -3332.1521    2226946.9 
   26900    271.60053   -1037456.5            0   -1031700.5   -3207.4318    2226946.9 
   27000    273.05362   -1037435.6            0   -1031648.9   -3423.8314    2226946.9 
   27100    272.68786   -1037461.6            0   -1031682.5   -3238.1538    2226946.9 
   27200    272.27019   -1037463.9            0   -1031693.7   -3018.5682    2226946.9 
   27300     272.8817   -1037451.8            0   -1031668.6   -2601.9856    2226946.9 
   27400    272.20628   -1037458.2            0   -1031689.4    -2016.031    2226946.9 
   27500    272.29961   -1037482.3            0   -1031711.5   -1948.8297    2226946.9 
   27600    273.28602   -1037451.3            0   -1031659.6   -1635.1809    2226946.9 
   27700    271.81662   -1037448.9            0   -1031688.3   -1324.4249    2226946.9 
   27800    272.01112   -1037468.3            0   -1031703.6   -1377.7911    2226946.9 
   27900    272.32306   -1037468.3            0     -1031697   -1087.8495    2226946.9 
   28000    272.45487   -1037458.9            0   -1031684.9   -1033.3729    2226946.9 
   28100    272.01606   -1037456.5            0   -1031691.7   -988.16914    2226946.9 
   28200    272.06748   -1037468.4            0   -1031702.5   -891.88154    2226946.9 
   28300    272.70839   -1037465.3            0   -1031685.8   -1402.4272    2226946.9 
   28400    272.63427     -1037470            0   -1031692.1   -1981.8465    2226946.9 
   28500    271.95024   -1037452.1            0   -1031688.7   -2590.5941    2226946.9 
   28600    273.16503   -1037446.3            0   -1031657.2   -3063.1968    2226946.9 
   28700    271.84532   -1037452.5            0   -1031691.3   -3069.4932    2226946.9 
   28800    271.17381   -1037446.2            0   -1031699.2   -2876.9468    2226946.9 
   28900    272.39095   -1037430.7            0   -1031657.9   -3170.6114    2226946.9 
   29000    273.35872   -1037422.6            0   -1031629.4   -3436.6375    2226946.9 
   29100    271.96425   -1037452.3            0   -1031688.6   -3716.0697    2226946.9 
   29200    272.93565   -1037450.4            0   -1031666.1   -3679.0325    2226946.9 
   29300     272.5491   -1037424.8            0   -1031648.7   -3661.1281    2226946.9 
   29400    271.74965   -1037458.5            0   -1031699.4   -3212.7351    2226946.9 
   29500    273.67283   -1037460.6            0   -1031660.7    -2692.639    2226946.9 
   29600    271.11642   -1037429.7            0     -1031684   -2172.3533    2226946.9 
   29700    271.78628   -1037468.6            0   -1031708.7   -1912.5677    2226946.9 
   29800    272.85578   -1037448.9            0   -1031666.3   -1632.0329    2226946.9 
   29900    271.96783   -1037447.2            0   -1031683.5   -1571.4179    2226946.9 
   30000    272.33391   -1037468.2            0   -1031696.7   -1325.9098    2226946.9 
   30100    273.45829     -1037479            0   -1031683.6    -1048.792    2226946.9 
   30200    271.07988   -1037463.2            0   -1031718.3   -850.98804    2226946.9 
   30300    272.39644   -1037467.8            0   -1031694.9   -942.87699    2226946.9 
   30400    273.95807   -1037482.1            0   -1031676.1   -1006.7709    2226946.9 
   30500      272.031   -1037442.5            0   -1031677.4   -1060.1755    2226946.9 
   30600     272.0098   -1037473.7            0     -1031709   -1726.1202    2226946.9 
   30700    272.47225   -1037462.3            0   -1031687.9   -2209.5072    2226946.9 
   30800    273.14504   -1037462.2            0   -1031673.5   -2793.9541    2226946.9 
   30900    272.45461   -1037469.2            0   -1031695.1   -2958.8501    2226946.9 
   31000    272.23528   -1037456.9            0   -1031687.4   -3153.5221    2226946.9 
   31100    272.31369   -1037429.6            0   -1031658.5   -3231.2004    2226946.9 
   31200    271.65029   -1037446.1            0   -1031689.1   -3351.8045    2226946.9 
   31300    272.04636     -1037440            0   -1031674.6   -3583.3008    2226946.9 
   31400    272.63878   -1037437.1            0   -1031659.2   -3675.6136    2226946.9 
   31500    272.52081   -1037460.1            0   -1031684.6   -3855.7342    2226946.9 
   31600    272.83357   -1037435.2            0   -1031653.1   -3609.0415    2226946.9 
   31700    272.47871   -1037455.2            0   -1031680.6    -3167.548    2226946.9 
   31800    272.11301     -1037454            0   -1031687.1    -2323.242    2226946.9 
   31900    271.97579     -1037483            0     -1031719   -1802.2168    2226946.9 
   32000    271.83653   -1037477.8            0   -1031716.8   -1489.6177    2226946.9 
   32100    272.37353   -1037459.6            0   -1031687.2   -1374.9092    2226946.9 
   32200    271.98134   -1037471.6            0   -1031707.5   -1412.2723    2226946.9 
   32300    271.30584   -1037467.6            0   -1031717.8   -1318.1938    2226946.9 
   32400    272.66891   -1037459.5            0   -1031680.9   -962.29482    2226946.9 
   32500    271.67829   -1037467.3            0   -1031709.7   -948.15082    2226946.9 
   32600    272.06804   -1037481.3            0   -1031715.4    -939.8098    2226946.9 
   32700    273.46532   -1037472.8            0   -1031677.3   -1268.4787    2226946.9 
   32800    271.88958   -1037466.3            0   -1031704.2   -1592.6333    2226946.9 
   32900    272.34705     -1037469            0   -1031697.2   -2196.7242    2226946.9 
   33000    272.87078   -1037469.2            0   -1031686.3   -2625.2304    2226946.9 
   33100    271.83251   -1037434.4            0   -1031673.5   -2708.2197    2226946.9 
   33200    272.17317     -1037473            0   -1031704.9   -2964.9428    2226946.9 
   33300    272.47339   -1037464.6            0   -1031690.1    -3040.297    2226946.9 
   33400     272.2421   -1037422.7            0   -1031653.1   -3221.4645    2226946.9 
   33500    271.30057   -1037450.5            0   -1031700.8   -3340.0282    2226946.9 
   33600    271.58075   -1037441.9            0   -1031686.3   -3575.4483    2226946.9 
   33700    272.64012   -1037441.3            0   -1031663.3   -3444.6449    2226946.9 
   33800    272.08122   -1037419.2            0   -1031653.1   -3235.1494    2226946.9 
   33900    271.47159   -1037439.6            0   -1031686.4   -3089.6781    2226946.9 
   34000      271.802   -1037448.1            0   -1031687.8   -2710.7377    2226946.9 
   34100    272.95862   -1037439.6            0   -1031654.9   -2083.6598    2226946.9 
   34200    272.08408   -1037465.8            0   -1031699.6   -1851.0669    2226946.9 
   34300    272.28199   -1037471.4            0     -1031701   -1578.0956    2226946.9 
   34400     272.1485   -1037460.2            0   -1031692.6   -1349.6374    2226946.9 
   34500    272.05915   -1037453.3            0   -1031687.6    -1267.887    2226946.9 
   34600    271.35062   -1037464.1            0   -1031713.4   -1076.3343    2226946.9 
   34700    272.62356   -1037460.9            0   -1031683.2   -1232.9855    2226946.9 
   34800    271.68987   -1037441.6            0   -1031683.7   -1217.5617    2226946.9 
   34900    271.52946   -1037473.2            0   -1031718.7   -1376.3943    2226946.9 
   35000    273.01375   -1037455.2            0   -1031669.3    -1353.183    2226946.9 
   35100    271.81734   -1037464.5            0   -1031703.9   -1708.4488    2226946.9 
   35200    272.47467   -1037486.2            0   -1031711.7   -2319.3762    2226946.9 
   35300    272.22443   -1037442.2            0     -1031673   -2596.3387    2226946.9 
   35400    272.51649   -1037452.1            0   -1031676.7   -2926.5366    2226946.9 
   35500    273.04144     -1037459            0   -1031672.5    -2902.338    2226946.9 
   35600    271.92776   -1037453.7            0   -1031690.8   -3090.1494    2226946.9 
   35700    273.19903   -1037450.3            0   -1031660.4   -3040.4212    2226946.9 
   35800    272.83605   -1037453.8            0   -1031671.6   -3344.4313    2226946.9 
   35900     271.4756   -1037449.5            0   -1031696.2   -3455.1865    2226946.9 
   36000    272.54514   -1037451.7            0   -1031675.6   -3360.8403    2226946.9 
   36100    272.57323   -1037441.3            0   -1031664.7   -3403.1225    2226946.9 
   36200    272.52261   -1037475.8            0   -1031700.2   -2825.6604    2226946.9 
   36300    271.68846   -1037446.3            0   -1031688.4   -2175.2794    2226946.9 
   36400    272.14444   -1037453.5            0     -1031686   -2040.0214    2226946.9 
   36500    271.71298   -1037490.9            0   -1031732.5   -1807.2189    2226946.9 
   36600    272.92154   -1037474.7            0   -1031690.7   -1867.7203    2226946.9 
   36700    272.26976   -1037455.8            0   -1031685.6   -1624.6582    2226946.9 
   36800    271.21349   -1037472.4            0   -1031724.6   -1543.8704    2226946.9 
   36900    273.09171   -1037474.8            0   -1031687.2   -1086.1435    2226946.9 
   37000    272.09702   -1037454.7            0   -1031688.2   -1002.1844    2226946.9 
   37100    272.35721     -1037490            0   -1031717.9   -1075.3898    2226946.9 
   37200    273.38722   -1037451.4            0   -1031657.5   -1019.9401    2226946.9 
   37300    272.21624     -1037467            0     -1031698   -1640.8197    2226946.9 
   37400     271.6119   -1037479.7            0   -1031723.4   -2042.2758    2226946.9 
   37500    272.52004   -1037447.6            0   -1031672.2   -2131.2151    2226946.9 
   37600    272.55256   -1037454.9            0   -1031678.8   -2524.0875    2226946.9 
   37700    272.45968   -1037469.2            0     -1031695   -2791.3511    2226946.9 
   37800    271.84108     -1037413            0     -1031652   -2850.8489    2226946.9 
   37900    272.20346   -1037449.2            0   -1031680.4   -3034.5866    2226946.9 
   38000    271.23645   -1037431.8            0   -1031683.5   -3202.0851    2226946.9 
   38100    273.12434     -1037432            0   -1031643.8    -3188.698    2226946.9 
   38200    273.11627     -1037443            0   -1031654.9    -3315.211    2226946.9 
   38300    271.73283   -1037444.3            0   -1031685.5   -3299.5444    2226946.9 
   38400    272.66779   -1037456.6            0   -1031677.9   -3154.9841    2226946.9 
   38500    272.98835   -1037457.4            0     -1031672    -2851.416    2226946.9 
   38600    272.04892   -1037453.8            0   -1031688.3   -2612.1067    2226946.9 
   38700    272.43515   -1037457.3            0   -1031683.6   -2048.3412    2226946.9 
   38800    272.85678   -1037456.1            0   -1031673.5   -1898.4405    2226946.9 
   38900    272.05599   -1037468.7            0     -1031703   -1783.3437    2226946.9 
   39000    273.30559   -1037466.4            0   -1031674.3   -1566.9614    2226946.9 
   39100    271.72633   -1037457.6            0     -1031699   -1479.4606    2226946.9 
   39200    271.64407   -1037459.6            0   -1031702.7   -1296.0004    2226946.9 
   39300    273.45693   -1037464.1            0   -1031668.8   -1066.7119    2226946.9 
   39400    271.70653   -1037485.7            0   -1031727.4   -803.78674    2226946.9 
   39500    272.55468   -1037474.1            0   -1031697.9   -1056.7722    2226946.9 
   39600    272.43787   -1037456.4            0   -1031682.7   -1523.5471    2226946.9 
   39700    272.09875   -1037502.5            0   -1031735.9   -1980.6463    2226946.9 
   39800    272.37259   -1037482.9            0   -1031710.6   -2246.4268    2226946.9 
   39900    272.65178   -1037455.5            0   -1031677.2   -2559.1466    2226946.9 
   40000    273.10589     -1037472            0   -1031684.1   -2486.9257    2226946.9 
   40100    271.92831   -1037481.9            0   -1031718.9   -2789.4496    2226946.9 
   40200    272.32797   -1037445.6            0   -1031674.2   -2974.5016    2226946.9 
   40300    272.38805   -1037451.1            0   -1031678.4   -3372.3992    2226946.9 
   40400    270.67052   -1037450.6            0   -1031714.3   -3404.3492    2226946.9 
   40500    272.27527     -1037447            0   -1031676.7    -3571.305    2226946.9 
   40600    272.62932   -1037437.6            0   -1031659.8   -3279.9248    2226946.9 
   40700    271.70892   -1037450.7            0   -1031692.5   -2887.2736    2226946.9 
   40800    272.68196   -1037448.6            0   -1031669.7   -2854.1387    2226946.9 
   40900    271.95981   -1037437.4            0   -1031673.8   -2403.5334    2226946.9 
   41000    272.13391     -1037452            0   -1031684.7   -2338.2104    2226946.9 
   41100    272.21712   -1037458.7            0   -1031689.6   -2155.1315    2226946.9 
   41200    272.41701   -1037461.5            0   -1031688.2    -1764.868    2226946.9 
   41300    271.61625   -1037456.4            0     -1031700   -1565.8632    2226946.9 
   41400    272.38286   -1037456.6            0   -1031684.1    -1276.386    2226946.9 
   41500    272.26363   -1037458.8            0   -1031688.8   -1182.3349    2226946.9 
   41600    272.05794   -1037465.4            0   -1031699.7   -1117.0294    2226946.9 
   41700    271.75753   -1037462.9            0   -1031703.6   -1003.1307    2226946.9 
   41800    273.28764   -1037467.3            0   -1031675.5   -1333.4896    2226946.9 
   41900    271.97572   -1037447.5            0   -1031683.5   -1635.2493    2226946.9 
   42000    271.15496   -1037455.2            0   -1031708.7   -1903.3226    2226946.9 
   42100    272.97015   -1037447.6            0   -1031662.6   -2186.2217    2226946.9 
   42200    273.10702   -1037466.4            0   -1031678.5    -2298.911    2226946.9 
   42300    271.62345   -1037440.3            0   -1031683.8   -2793.6766    2226946.9 
   42400    273.20012   -1037441.8            0   -1031651.9   -2887.4502    2226946.9 
   42500    271.95731   -1037446.4            0   -1031682.8   -2941.1879    2226946.9 
   42600    272.17033   -1037435.7            0   -1031667.6   -3308.5264    2226946.9 
   42700    273.00452   -1037431.9            0   -1031646.1   -3576.6509    2226946.9 
   42800    272.11661   -1037429.2            0   -1031662.3   -3748.7691    2226946.9 
   42900    271.95617   -1037440.1            0   -1031676.6   -3603.3827    2226946.9 
   43000    273.22906   -1037448.2            0   -1031657.7   -3183.9763    2226946.9 
   43100    272.07893     -1037442            0   -1031675.9   -2617.8626    2226946.9 
   43200    272.70771   -1037463.1            0   -1031683.7   -2191.8572    2226946.9 
   43300    272.27151   -1037477.6            0   -1031707.4   -2209.1747    2226946.9 
   43400    272.63683   -1037466.1            0   -1031688.2   -1849.6194    2226946.9 
   43500    272.51115   -1037443.2            0   -1031667.9   -1689.6992    2226946.9 
   43600      271.054   -1037465.7            0   -1031721.3   -1417.6739    2226946.9 
   43700    272.58213     -1037468            0   -1031691.2   -920.18526    2226946.9 
   43800    272.85504   -1037461.1            0   -1031678.6   -772.11806    2226946.9 
   43900    271.18523   -1037478.6            0   -1031731.5    -939.9306    2226946.9 
   44000    272.85452   -1037474.5            0   -1031691.9   -1044.1963    2226946.9 
   44100     272.6981   -1037467.1            0   -1031687.9   -1535.9601    2226946.9 
   44200    272.27704   -1037478.3            0     -1031708   -1896.1364    2226946.9 
   44300    272.54008   -1037457.7            0   -1031681.8    -2167.694    2226946.9 
   44400    273.06733     -1037436            0   -1031648.9   -2391.3364    2226946.9 
   44500    272.13639     -1037457            0   -1031689.7   -2514.9177    2226946.9 
   44600    272.03963   -1037442.3            0     -1031677   -2888.6107    2226946.9 
   44700    272.84291   -1037431.3            0     -1031649   -3131.4041    2226946.9 
   44800    272.01043     -1037443            0   -1031678.3   -3455.5738    2226946.9 
   44900    272.30047   -1037435.6            0   -1031664.8   -3536.4489    2226946.9 
   45000    272.97527   -1037428.1            0     -1031643    -3551.314    2226946.9 
   45100    272.95927   -1037444.7            0   -1031659.9   -3642.5462    2226946.9 
   45200    272.64131   -1037452.3            0   -1031674.2   -3422.1189    2226946.9 
   45300      271.743   -1037434.8            0   -1031675.8   -3004.8234    2226946.9 
   45400    272.95172   -1037443.2            0   -1031658.6    -2614.395    2226946.9 
   45500    272.45977   -1037454.2            0     -1031680   -2191.9739    2226946.9 
   45600    272.35689   -1037454.7            0   -1031682.7   -1888.3697    2226946.9 
   45700    271.94633   -1037435.5            0   -1031672.2   -1472.5163    2226946.9 
   45800    272.42842   -1037468.9            0   -1031695.3   -1458.9681    2226946.9 
   45900    272.52181     -1037467            0   -1031691.5   -1250.2532    2226946.9 
   46000    273.00146   -1037455.6            0   -1031669.9   -969.48321    2226946.9 
   46100    272.35511   -1037474.4            0   -1031702.5   -826.68359    2226946.9 
   46200    272.27758     -1037470            0   -1031699.7   -809.05615    2226946.9 
   46300    272.86399   -1037473.7            0   -1031690.9   -1111.5174    2226946.9 
   46400    272.12315   -1037485.3            0   -1031718.2   -1432.0189    2226946.9 
   46500    271.68951   -1037460.3            0   -1031702.4    -1895.041    2226946.9 
   46600    272.14092   -1037458.8            0   -1031691.3   -2429.4381    2226946.9 
   46700    272.69309   -1037477.6            0   -1031698.4   -2653.6429    2226946.9 
   46800    272.60037   -1037460.4            0   -1031683.2   -2703.5982    2226946.9 
   46900    271.94495   -1037436.5            0   -1031673.2   -3018.7495    2226946.9 
   47000     271.4901   -1037461.6            0   -1031707.9   -3228.3152    2226946.9 
   47100    272.09541     -1037456            0   -1031689.5   -3459.9232    2226946.9 
   47200     272.4737   -1037443.8            0   -1031669.3   -3771.7772    2226946.9 
   47300    271.88458   -1037449.2            0   -1031687.2   -3545.6559    2226946.9 
   47400    271.38794   -1037437.1            0   -1031685.6   -3366.1009    2226946.9 
   47500    272.28968   -1037445.8            0   -1031675.2   -2929.6308    2226946.9 
   47600    272.35438   -1037464.3            0   -1031692.3   -2642.2765    2226946.9 
   47700    271.33741   -1037488.3            0   -1031737.9   -2244.0897    2226946.9 
   47800    271.96805     -1037467            0   -1031703.3   -2223.2951    2226946.9 
   47900    272.17852   -1037443.4            0   -1031675.2   -1862.1173    2226946.9 
   48000    272.45241     -1037480            0     -1031706   -1668.6676    2226946.9 
   48100    271.95663   -1037474.7            0   -1031711.2   -1395.1136    2226946.9 
   48200    272.67318   -1037457.3            0   -1031678.6   -1127.3304    2226946.9 
   48300    272.40343     -1037478            0     -1031705   -1083.8725    2226946.9 
   48400    271.99168   -1037487.4            0   -1031723.1   -995.86556    2226946.9 
   48500    272.72047   -1037459.5            0   -1031679.8   -1236.5569    2226946.9 
   48600    272.14205   -1037463.9            0   -1031696.4   -1387.3024    2226946.9 
   48700    271.62252   -1037468.1            0   -1031711.6   -1632.7945    2226946.9 
   48800    272.58997   -1037467.8            0   -1031690.9   -2142.2053    2226946.9 
   48900    272.98204   -1037459.8            0   -1031674.5   -2218.6223    2226946.9 
   49000    270.95409   -1037451.1            0   -1031708.8   -2421.6167    2226946.9 
   49100    272.68593   -1037461.3            0   -1031682.3   -2903.8688    2226946.9 
   49200    272.86238   -1037445.6            0   -1031662.8   -3112.4062    2226946.9 
   49300    271.46042   -1037460.4            0   -1031707.4   -3536.3748    2226946.9 
   49400     272.0557   -1037452.3            0   -1031686.7   -3373.3624    2226946.9 
   49500    272.76384   -1037440.2            0   -1031659.5   -3638.8266    2226946.9 
   49600    271.87241   -1037439.2            0   -1031677.5   -3470.4585    2226946.9 
   49700    271.57275     -1037458            0   -1031702.6   -3314.9299    2226946.9 
   49800    273.13348   -1037443.4            0   -1031654.9   -2937.2083    2226946.9 
   49900    272.64259   -1037466.9            0   -1031688.8   -2366.2108    2226946.9 
   50000    272.12636   -1037476.1            0     -1031709    -2072.356    2226946.9 
   50100    273.04771   -1037442.2            0   -1031655.6   -2023.8536    2226946.9 
   50200    271.99296     -1037455            0   -1031690.7    -1805.656    2226946.9 
   50300    272.46997   -1037479.5            0   -1031705.1   -1635.6796    2226946.9 
   50400    272.20232   -1037423.7            0     -1031655   -1251.2983    2226946.9 
   50500    272.91731   -1037469.8            0   -1031685.9   -1192.6008    2226946.9 
   50600    271.76244   -1037472.6            0   -1031713.2   -943.19409    2226946.9 
   50700    272.15799   -1037468.5            0   -1031700.7   -869.35702    2226946.9 
   50800    272.79555   -1037454.8            0   -1031673.4   -1020.1071    2226946.9 
   50900    271.18455   -1037470.5            0   -1031723.3   -1668.7442    2226946.9 
   51000    272.46439   -1037472.9            0   -1031698.6   -2082.5667    2226946.9 
   51100    271.34581   -1037431.2            0   -1031680.6   -2315.6705    2226946.9 
   51200    271.96774   -1037461.9            0   -1031698.1   -2345.0636    2226946.9 
   51300    271.89257   -1037488.9            0   -1031726.7   -2740.2298    2226946.9 
   51400      271.504   -1037443.1            0   -1031689.1   -2765.3683    2226946.9 
   51500    272.85043   -1037450.6            0   -1031668.1   -3255.9622    2226946.9 
   51600    272.60062   -1037455.9            0   -1031678.7    -3492.486    2226946.9 
   51700    272.21416     -1037451            0   -1031682.1   -3643.7622    2226946.9 
   51800    272.61011   -1037441.3            0   -1031663.9   -3526.5446    2226946.9 
   51900    272.05225   -1037438.2            0   -1031672.6   -3472.8834    2226946.9 
   52000    271.71934   -1037456.7            0   -1031698.2   -3129.6283    2226946.9 
   52100    272.05073   -1037443.3            0   -1031677.7   -2809.2989    2226946.9 
   52200    271.91753   -1037453.5            0   -1031690.8   -2450.5862    2226946.9 
   52300    272.05933   -1037467.3            0   -1031701.6   -2287.4595    2226946.9 
   52400    273.38028   -1037468.1            0   -1031674.4   -1697.4929    2226946.9 
   52500    272.32172   -1037471.4            0   -1031700.1   -1631.8729    2226946.9 
   52600    272.51408   -1037459.9            0   -1031684.6   -1215.3024    2226946.9 
   52700    272.06137     -1037464            0   -1031698.2   -1173.4203    2226946.9 
   52800    272.09658   -1037474.7            0   -1031708.2   -1116.3143    2226946.9 
   52900    271.83774   -1037470.5            0   -1031709.5   -875.42592    2226946.9 
   53000    273.54446   -1037479.4            0   -1031682.3   -893.40437    2226946.9 
   53100     272.1704   -1037476.3            0   -1031708.2   -1201.7222    2226946.9 
   53200    270.14923   -1037482.8            0   -1031757.6   -1510.0021    2226946.9 
   53300    271.55448   -1037453.4            0   -1031698.4   -2105.6011    2226946.9 
   53400    273.02967   -1037457.4            0   -1031671.1   -2178.8724    2226946.9 
   53500    271.08542   -1037457.6            0   -1031712.5    -2521.943    2226946.9 
   53600    271.73057     -1037451            0   -1031692.3   -2777.1771    2226946.9 
   53700    271.65836   -1037434.3            0   -1031677.1    -2948.703    2226946.9 
   53800    272.32023   -1037446.1            0   -1031674.8   -3179.8181    2226946.9 
   53900    271.70158   -1037430.3            0   -1031672.1    -3209.355    2226946.9 
   54000    271.81299   -1037448.3            0   -1031687.8   -3846.1325    2226946.9 
   54100    272.18719   -1037425.8            0   -1031657.3   -3793.3649    2226946.9 
   54200    271.91401   -1037443.4            0   -1031680.7    -3491.496    2226946.9 
   54300    272.68999   -1037465.4            0   -1031686.3   -3167.0597    2226946.9 
   54400    273.31693   -1037439.6            0   -1031647.2   -2709.4535    2226946.9 
   54500    272.62259   -1037465.1            0   -1031687.5   -2351.0081    2226946.9 
   54600    272.34624   -1037457.8            0     -1031686   -2073.1035    2226946.9 
   54700    272.72692   -1037454.5            0   -1031674.6   -1901.1532    2226946.9 
   54800    272.53181   -1037467.2            0   -1031691.5   -1752.3007    2226946.9 
   54900    272.47256   -1037475.1            0   -1031700.7   -1292.8999    2226946.9 
   55000    272.96061   -1037472.6            0   -1031687.8   -1066.9536    2226946.9 
   55100    273.66343     -1037457            0   -1031657.3   -722.88725    2226946.9 
   55200    273.03174   -1037486.5            0   -1031700.2   -838.94892    2226946.9 
   55300    272.58298   -1037499.5            0   -1031722.6   -1166.3196    2226946.9 
   55400       273.04   -1037462.8            0   -1031676.3   -1495.3604    2226946.9 
   55500     272.9595   -1037475.8            0     -1031691   -1719.1185    2226946.9 
   55600    272.07491   -1037459.9            0   -1031693.9   -2012.6973    2226946.9 
   55700    272.89717   -1037451.7            0   -1031668.3   -2171.2965    2226946.9 
   55800    272.15612   -1037448.6            0   -1031680.8   -2450.6467    2226946.9 
   55900    271.56695   -1037446.3            0     -1031691   -2930.6385    2226946.9 
   56000    271.44842     -1037425            0   -1031672.2   -3104.4515    2226946.9 
   56100    272.59047   -1037472.5            0   -1031695.6   -3297.5401    2226946.9 
   56200    271.86185   -1037432.6            0   -1031671.1   -3574.3306    2226946.9 
   56300    271.59538   -1037424.2            0   -1031668.3   -3595.1933    2226946.9 
   56400    271.28187   -1037441.4            0   -1031692.1   -3642.8656    2226946.9 
   56500    272.68236     -1037461            0   -1031682.1   -3444.2188    2226946.9 
   56600    271.82604   -1037437.8            0     -1031677   -2798.3005    2226946.9 
   56700    272.32332     -1037480            0   -1031708.7   -2583.6861    2226946.9 
   56800    271.64083   -1037470.5            0   -1031713.6   -2055.6257    2226946.9 
   56900    272.75882   -1037461.5            0     -1031681    -1773.416    2226946.9 
   57000    272.03081   -1037460.1            0     -1031695   -1615.1024    2226946.9 
   57100    271.75745   -1037470.2            0   -1031710.9   -1400.7907    2226946.9 
   57200    272.83407   -1037467.2            0   -1031685.1    -1087.786    2226946.9 
   57300    273.16946   -1037486.1            0   -1031696.9   -964.43692    2226946.9 
   57400    271.39584     -1037487            0   -1031735.4   -731.39258    2226946.9 
   57500     272.4097   -1037467.7            0   -1031694.5   -650.30906    2226946.9 
   57600    273.31985   -1037478.2            0   -1031685.8    -834.6049    2226946.9 
   57700    271.53465   -1037481.9            0   -1031727.3   -1565.4475    2226946.9 
   57800    272.06936   -1037445.4            0   -1031679.4   -1972.4573    2226946.9 
   57900    272.95261     -1037463            0   -1031678.3   -2164.6016    2226946.9 
   58000     271.4777   -1037454.8            0   -1031701.4   -2701.9742    2226946.9 
   58100    272.57612   -1037441.7            0   -1031665.1   -2879.3318    2226946.9 
   58200     271.3212     -1037449            0     -1031699   -3214.1251    2226946.9 
   58300    272.96365   -1037449.1            0   -1031664.2   -3380.4611    2226946.9 
   58400    272.30967   -1037445.2            0   -1031674.2   -3749.1358    2226946.9 
   58500    271.91487   -1037439.8            0   -1031677.2      -3882.7    2226946.9 
   58600    272.16894   -1037407.3            0   -1031639.2   -3897.9338    2226946.9 
   58700    272.41797   -1037451.6            0   -1031678.3   -3585.6278    2226946.9 
   58800    272.19994   -1037443.4            0   -1031674.7   -3019.1634    2226946.9 
   58900    271.80712   -1037436.3            0   -1031675.9   -2534.8779    2226946.9 
   59000    271.30889   -1037472.6            0   -1031722.8   -2351.8385    2226946.9 
   59100    272.59598   -1037448.7            0   -1031671.6   -1976.0046    2226946.9 
   59200    273.15215   -1037470.5            0   -1031681.6   -1627.6649    2226946.9 
   59300    271.95606   -1037477.2            0   -1031713.7   -1387.6298    2226946.9 
   59400    273.87416   -1037471.4            0   -1031667.2   -1080.8276    2226946.9 
   59500    272.73602   -1037466.7            0   -1031686.7   -890.30554    2226946.9 
   59600    271.33186   -1037457.2            0   -1031706.9   -870.47645    2226946.9 
   59700    272.57907   -1037476.8            0     -1031700   -679.67402    2226946.9 
   59800    272.69549   -1037459.2            0     -1031680    -985.9619    2226946.9 
   59900    271.72351   -1037465.6            0     -1031707   -1459.4829    2226946.9 
   60000    272.49523   -1037466.4            0   -1031691.5   -1759.1923    2226946.9 
   60100    272.04567   -1037447.5            0   -1031682.1   -2165.0212    2226946.9 
   60200    272.97798   -1037471.6            0   -1031686.4   -2394.2678    2226946.9 
   60300    271.43782   -1037440.3            0   -1031687.7   -2872.1751    2226946.9 
   60400    272.80507   -1037445.7            0   -1031664.2   -3068.6206    2226946.9 
   60500    272.03205   -1037456.9            0   -1031691.7   -3121.8117    2226946.9 
   60600     272.1804   -1037447.4            0   -1031679.2   -3473.2867    2226946.9 
   60700    272.41362   -1037440.6            0   -1031667.4   -3589.4755    2226946.9 
   60800     272.4599   -1037444.8            0   -1031670.6   -3617.8794    2226946.9 
   60900    272.81351   -1037440.6            0   -1031658.9   -3804.7941    2226946.9 
   61000    272.39553   -1037428.5            0   -1031655.7   -3267.0055    2226946.9 
   61100    271.65961     -1037445            0   -1031687.8   -2637.4095    2226946.9 
   61200    272.49181   -1037446.6            0   -1031671.8   -2491.8308    2226946.9 
   61300    272.65598   -1037442.9            0   -1031664.6   -2130.4008    2226946.9 
   61400    273.17977   -1037470.7            0   -1031681.3    -1856.797    2226946.9 
   61500    272.52717   -1037474.3            0   -1031698.7   -1756.7262    2226946.9 
   61600    272.43377   -1037443.6            0     -1031670   -1262.2096    2226946.9 
   61700    272.31799   -1037467.4            0   -1031696.2   -969.29157    2226946.9 
   61800    272.71687   -1037481.1            0   -1031701.4   -911.45618    2226946.9 
   61900    272.59156   -1037437.4            0   -1031660.4   -630.52262    2226946.9 
   62000    273.13454     -1037479            0   -1031690.5   -948.83283    2226946.9 
   62100    272.64828   -1037481.2            0     -1031703   -1201.3478    2226946.9 
   62200    272.81981     -1037462            0   -1031680.2   -1808.6808    2226946.9 
   62300    272.60652   -1037450.2            0   -1031672.9   -2151.8794    2226946.9 
   62400    271.75432   -1037449.5            0   -1031690.3   -2451.5712    2226946.9 
   62500    272.32736   -1037448.1            0   -1031676.7    -2540.962    2226946.9 
   62600    272.87618   -1037469.8            0   -1031686.8    -2632.033    2226946.9 
   62700    272.20097     -1037445            0   -1031676.2   -3110.4883    2226946.9 
   62800    272.54214   -1037435.7            0   -1031659.7   -3318.5907    2226946.9 
   62900    272.77593   -1037458.7            0   -1031677.8   -3611.3815    2226946.9 
   63000     272.3187   -1037455.3            0   -1031684.1   -3552.4341    2226946.9 
   63100    272.58786   -1037438.4            0   -1031661.5   -3465.4171    2226946.9 
   63200    272.55699   -1037454.6            0   -1031678.4   -3279.2583    2226946.9 
   63300    272.02242   -1037461.7            0   -1031696.8   -2891.2032    2226946.9 
   63400    272.65043   -1037445.7            0   -1031667.4   -2499.0479    2226946.9 
   63500    272.56425   -1037456.5            0   -1031680.1   -2312.1357    2226946.9 
   63600    271.60598   -1037448.7            0   -1031692.6   -1997.2766    2226946.9 
   63700    272.58489   -1037469.2            0   -1031692.4   -1830.3048    2226946.9 
   63800    271.92193     -1037461            0   -1031698.2   -1579.0366    2226946.9 
   63900     271.2456   -1037451.3            0   -1031702.8   -1211.1683    2226946.9 
   64000    273.39033   -1037470.7            0   -1031676.7   -1149.2826    2226946.9 
   64100    271.79903   -1037449.1            0   -1031688.9   -1064.8824    2226946.9 
   64200     271.2523   -1037468.3            0   -1031719.7   -954.26552    2226946.9 
   64300    272.32749     -1037457            0   -1031685.6   -885.47413    2226946.9 
   64400    271.81925   -1037456.8            0   -1031696.2   -1400.9153    2226946.9 
   64500    272.00624   -1037449.7            0   -1031685.1   -1878.4454    2226946.9 
   64600    272.74146   -1037444.5            0   -1031664.3    -2160.883    2226946.9 
   64700    272.17028   -1037470.1            0     -1031702   -2572.9291    2226946.9 
   64800     272.4464     -1037453            0   -1031679.1   -2576.4228    2226946.9 
   64900    272.00726   -1037434.2            0   -1031669.6   -2952.7793    2226946.9 
   65000    272.46776     -1037467            0   -1031692.6   -3021.9304    2226946.9 
   65100    273.15202   -1037442.6            0   -1031653.7   -3208.9914    2226946.9 
   65200    271.63155   -1037439.2            0   -1031682.5   -3446.0076    2226946.9 
   65300    272.91112   -1037455.1            0   -1031671.3    -3614.058    2226946.9 
   65400    271.79848   -1037431.2            0     -1031671    -3700.389    2226946.9 
   65500    272.56303   -1037446.8            0   -1031670.5   -3260.4522    2226946.9 
   65600    271.59362   -1037450.5            0   -1031694.7   -2842.6222    2226946.9 
   65700    272.33836   -1037473.8            0   -1031702.2   -2613.6612    2226946.9 
   65800    271.61401   -1037444.4            0   -1031688.1    -2194.225    2226946.9 
   65900    272.30116   -1037456.1            0   -1031685.3   -2089.2336    2226946.9 
   66000    271.56347   -1037472.3            0   -1031717.1   -2042.4093    2226946.9 
   66100    272.88734   -1037459.7            0   -1031676.4   -1404.4466    2226946.9 
   66200    272.19646   -1037476.7            0   -1031708.1   -1076.0108    2226946.9 
   66300    272.05166     -1037474            0   -1031708.5   -1063.8912    2226946.9 
   66400    273.33398   -1037456.2            0   -1031663.5   -762.93282    2226946.9 
   66500    271.61941   -1037468.5            0   -1031712.1   -933.05862    2226946.9 
   66600    271.16932   -1037472.5            0   -1031725.6   -974.11814    2226946.9 
   66700    272.84908   -1037449.5            0   -1031667.1   -1457.3762    2226946.9 
   66800     272.9972   -1037475.9            0   -1031690.3   -1913.4301    2226946.9 
   66900    271.99193   -1037459.9            0   -1031695.6   -1854.0108    2226946.9 
   67000    273.30646   -1037440.7            0   -1031648.5   -2358.3056    2226946.9 
   67100    271.68632   -1037438.4            0   -1031680.6   -2654.9988    2226946.9 
   67200    271.69887   -1037447.6            0   -1031689.6   -2989.5899    2226946.9 
   67300    272.57528   -1037438.2            0   -1031661.6   -3334.0454    2226946.9 
   67400    271.65786   -1037438.4            0   -1031681.2   -3606.7596    2226946.9 
   67500    273.11992   -1037466.5            0   -1031678.3   -3449.3915    2226946.9 
   67600    272.66992   -1037441.4            0   -1031662.8   -3683.6247    2226946.9 
   67700    271.81098   -1037453.3            0   -1031692.9    -3669.772    2226946.9 
   67800    272.63065   -1037453.8            0   -1031675.9   -3315.8687    2226946.9 
   67900    273.01042   -1037464.2            0   -1031678.4   -2946.4237    2226946.9 
   68000    272.52846   -1037475.1            0   -1031699.4   -2490.3484    2226946.9 
   68100     272.7852   -1037460.6            0   -1031679.5   -2161.7096    2226946.9 
   68200    272.30398     -1037475            0   -1031704.1   -2108.5531    2226946.9 
   68300    272.59659   -1037480.2            0   -1031703.1   -1783.9136    2226946.9 
   68400    272.45798   -1037460.9            0   -1031686.8   -1135.6881    2226946.9 
   68500    272.38564   -1037464.4            0   -1031691.8   -1022.3722    2226946.9 
   68600       273.02   -1037478.1            0     -1031692   -969.70018    2226946.9 
   68700     272.3463   -1037468.4            0   -1031696.6   -829.11047    2226946.9 
   68800    271.97943   -1037452.8            0   -1031688.8   -690.92626    2226946.9 
   68900    271.57389     -1037474            0   -1031718.6   -1045.8226    2226946.9 
   69000    272.83321   -1037468.5            0   -1031686.4   -1512.9196    2226946.9 
   69100    272.40548   -1037463.9            0   -1031690.9   -1965.1835    2226946.9 
   69200    271.91043   -1037469.2            0   -1031706.7   -2132.6883    2226946.9 
   69300    272.38472   -1037451.6            0     -1031679   -2362.3967    2226946.9 
   69400    272.41965   -1037470.1            0   -1031696.8   -2731.1238    2226946.9 
   69500    271.57314   -1037443.4            0   -1031687.9   -3141.3296    2226946.9 
   69600    272.46048   -1037450.8            0   -1031676.6   -3459.5805    2226946.9 
   69700    272.93315   -1037447.8            0   -1031663.6   -3595.2921    2226946.9 
   69800    271.32693   -1037442.4            0   -1031692.2   -3814.3037    2226946.9 
   69900    273.14217     -1037456            0   -1031667.3   -3871.3122    2226946.9 
   70000    272.53089   -1037447.4            0   -1031671.7   -3579.7883    2226946.9 
   70100    270.56964   -1037447.6            0   -1031713.5   -3265.5242    2226946.9 
   70200    271.27766   -1037462.5            0   -1031713.4   -2803.9252    2226946.9 
   70300    272.14507   -1037446.6            0   -1031679.1   -2350.5887    2226946.9 
   70400    272.05725   -1037461.3            0   -1031695.6    -2209.314    2226946.9 
   70500    271.39411   -1037468.7            0   -1031717.1   -1831.4912    2226946.9 
   70600     272.2305   -1037448.7            0   -1031679.3   -1229.4453    2226946.9 
   70700     271.6844   -1037459.9            0   -1031702.1   -1061.3063    2226946.9 
   70800      272.322   -1037510.4            0   -1031739.1   -988.83764    2226946.9 
   70900    272.61629   -1037458.9            0   -1031681.4   -850.13098    2226946.9 
   71000    272.94998     -1037481            0   -1031696.4   -705.64146    2226946.9 
   71100    272.19439   -1037498.6            0     -1031730   -838.28709    2226946.9 
   71200    272.59006   -1037444.7            0   -1031667.7     -1163.68    2226946.9 
   71300    271.89574   -1037462.7            0   -1031700.5   -1853.2414    2226946.9 
   71400    272.13613   -1037460.8            0   -1031693.5   -2243.7776    2226946.9 
   71500    272.98992   -1037446.9            0   -1031661.5   -2542.2957    2226946.9 
   71600    272.04038   -1037463.3            0     -1031698   -2978.8126    2226946.9 
   71700    272.94644     -1037437            0   -1031652.5   -3151.6241    2226946.9 
   71800    272.97371   -1037449.4            0   -1031664.4   -3612.7886    2226946.9 
   71900    272.14572   -1037446.6            0     -1031679   -3683.6043    2226946.9 
   72000    272.73371   -1037425.9            0   -1031645.9   -3864.8981    2226946.9 
   72100    272.37776   -1037435.6            0   -1031663.2   -3855.3879    2226946.9 
   72200    272.82087   -1037466.6            0   -1031684.7   -3761.9718    2226946.9 
   72300    273.04907   -1037432.1            0   -1031645.4   -3248.3424    2226946.9 
   72400    272.69223   -1037457.3            0   -1031678.2   -2837.0738    2226946.9 
   72500    272.06327     -1037468            0   -1031702.2   -2181.2859    2226946.9 
   72600    272.95952   -1037456.3            0   -1031671.5   -1925.8899    2226946.9 
   72700    272.54265     -1037464            0     -1031688   -1980.1045    2226946.9 
   72800    272.42236   -1037477.3            0   -1031703.8   -1621.7267    2226946.9 
   72900     272.9975   -1037457.3            0   -1031671.7   -1064.1751    2226946.9 
   73000    273.13733   -1037437.6            0   -1031649.1   -634.51692    2226946.9 
   73100    272.87598   -1037493.3            0   -1031710.2   -597.14657    2226946.9 
   73200    272.33875     -1037478            0   -1031706.4   -505.86753    2226946.9 
   73300    273.33293   -1037463.1            0   -1031670.4   -764.24162    2226946.9 
   73400    271.75945   -1037465.7            0   -1031706.3   -1034.5317    2226946.9 
   73500     272.4777   -1037475.7            0   -1031701.1   -1779.1958    2226946.9 
   73600    273.14887   -1037450.5            0   -1031661.7   -2383.7664    2226946.9 
   73700    272.22061     -1037449            0   -1031679.8   -2507.6604    2226946.9 
   73800     271.7282   -1037462.3            0   -1031703.6   -2749.5591    2226946.9 
   73900    272.31041   -1037430.6            0   -1031659.6   -2926.1832    2226946.9 
   74000    272.91581     -1037453            0   -1031669.1   -3354.8227    2226946.9 
   74100    272.00805   -1037443.7            0   -1031679.1   -3729.6987    2226946.9 
   74200    272.78663     -1037417            0   -1031635.9   -3827.1676    2226946.9 
   74300    272.25816   -1037436.4            0   -1031666.4   -3984.5811    2226946.9 
   74400    272.69676   -1037460.3            0     -1031681    -3767.326    2226946.9 
   74500    273.07623     -1037420            0   -1031632.7   -3423.6502    2226946.9 
   74600    273.77993   -1037436.2            0     -1031634   -3049.5593    2226946.9 
   74700    272.49825   -1037462.3            0   -1031687.3   -2414.4341    2226946.9 
   74800    271.67308   -1037467.5            0     -1031710   -1950.9131    2226946.9 
   74900     272.7367     -1037448            0     -1031668   -1803.4649    2226946.9 
   75000    272.60443   -1037469.3            0     -1031692   -1651.4488    2226946.9 
   75100    271.71101   -1037464.3            0     -1031706   -1307.4538    2226946.9 
   75200    273.04799   -1037458.6            0   -1031671.9    -979.2547    2226946.9 
   75300    272.76185   -1037443.4            0   -1031662.8   -854.39779    2226946.9 
   75400    271.46819   -1037461.9            0   -1031708.7   -724.27096    2226946.9 
   75500    271.90671     -1037455            0   -1031692.5   -853.30737    2226946.9 
   75600     273.3675   -1037460.2            0   -1031666.8   -1080.4113    2226946.9 
   75700    270.94421   -1037463.4            0   -1031721.3   -1479.3562    2226946.9 
   75800    272.75556   -1037459.8            0   -1031679.3   -2037.7991    2226946.9 
   75900    273.44149   -1037470.8            0   -1031675.8   -2383.2386    2226946.9 
   76000    270.78059   -1037439.9            0   -1031701.3   -2761.0164    2226946.9 
   76100    270.70228   -1037459.9            0   -1031722.9   -2818.4963    2226946.9 
   76200    272.02828   -1037446.2            0   -1031681.1   -2966.3395    2226946.9 
   76300     272.7763   -1037459.6            0   -1031678.7   -3403.3888    2226946.9 
   76400     272.6287   -1037449.3            0   -1031671.5    -3513.391    2226946.9 
   76500    271.84925   -1037452.5            0   -1031691.2   -3683.7794    2226946.9 
   76600    272.60613   -1037431.7            0   -1031654.4   -3580.7061    2226946.9 
   76700    271.88307   -1037440.5            0   -1031678.6    -3485.721    2226946.9 
   76800    272.47378     -1037457            0   -1031682.5   -3039.0577    2226946.9 
   76900    272.48661   -1037460.3            0   -1031685.5   -2442.4619    2226946.9 
   77000    271.48919   -1037455.7            0     -1031702   -2206.8471    2226946.9 
   77100    272.27413     -1037483            0   -1031712.7   -1799.7823    2226946.9 
   77200     272.5701     -1037453            0   -1031676.4   -1900.6398    2226946.9 
   77300    271.36147   -1037459.1            0   -1031708.2   -1534.5132    2226946.9 
   77400    271.38383   -1037454.3            0   -1031702.9    -1204.605    2226946.9 
   77500     273.3276   -1037466.2            0   -1031673.6   -1059.7343    2226946.9 
   77600    271.45861   -1037465.4            0   -1031712.4   -1075.1705    2226946.9 
   77700    271.91151   -1037448.3            0   -1031685.8   -1160.0386    2226946.9 
   77800    273.33095   -1037467.6            0   -1031674.9   -1365.4476    2226946.9 
   77900     272.0775   -1037467.3            0   -1031701.2   -1466.4834    2226946.9 
   78000    273.08232   -1037464.6            0   -1031677.2   -1836.7568    2226946.9 
   78100    273.13275   -1037450.6            0   -1031662.1   -2247.8931    2226946.9 
   78200     272.1681     -1037465            0     -1031697   -2709.4079    2226946.9 
   78300    272.60175   -1037438.1            0   -1031660.9   -2627.5945    2226946.9 
   78400    273.21762   -1037443.3            0   -1031653.1   -2808.9977    2226946.9 
   78500    272.11439   -1037453.6            0   -1031686.7   -2947.3517    2226946.9 
   78600     272.5063   -1037448.3            0   -1031673.1   -3096.2082    2226946.9 
   78700    272.93945   -1037430.4            0   -1031646.1    -3246.085    2226946.9 
   78800    271.49716   -1037445.5            0   -1031691.7   -3181.7032    2226946.9 
   78900    271.83888   -1037428.9            0   -1031667.8   -3208.9815    2226946.9 
   79000    273.32547   -1037444.9            0   -1031652.3   -3338.9721    2226946.9 
   79100    271.81057   -1037464.1            0   -1031703.6   -2781.2593    2226946.9 
   79200    272.50083     -1037444            0   -1031668.9   -2283.6539    2226946.9 
   79300    272.36783   -1037466.5            0   -1031694.3   -2181.3197    2226946.9 
   79400    271.74706   -1037467.4            0   -1031708.3   -1907.6106    2226946.9 
   79500    272.50311   -1037454.3            0   -1031679.1   -1810.7677    2226946.9 
   79600    272.13371   -1037481.8            0   -1031714.5    -1623.267    2226946.9 
   79700    272.14706   -1037469.8            0   -1031702.2   -1618.0276    2226946.9 
   79800    272.77857   -1037458.7            0   -1031677.7   -1384.0526    2226946.9 
   79900    270.93722   -1037464.3            0   -1031722.4   -1094.8281    2226946.9 
   80000    272.00801   -1037491.1            0   -1031726.5   -1207.0704    2226946.9 
   80100    272.92322   -1037471.8            0   -1031687.8   -1134.3595    2226946.9 
   80200    271.31432   -1037438.6            0   -1031688.7   -1370.6149    2226946.9 
   80300    271.37567   -1037477.5            0   -1031726.3   -1870.1719    2226946.9 
   80400    272.45455   -1037460.3            0   -1031686.2   -2182.9621    2226946.9 
[...]
   82400    272.12378   -1037474.8            0   -1031707.7    -1164.027    2226946.9 
   82500    272.43805   -1037460.5            0   -1031686.7   -1301.4319    2226946.9 
   82600     272.0925   -1037443.3            0   -1031676.9    -1762.716    2226946.9 
   82700    272.33636   -1037459.2            0   -1031687.6   -2078.7322    2226946.9 
   82800    272.25062   -1037464.5            0   -1031694.7   -2246.8158    2226946.9 
   82900    271.68182   -1037455.5            0   -1031697.8   -2297.0415    2226946.9 
   83000    272.95082   -1037458.8            0   -1031674.2   -2472.1063    2226946.9 
   83100    272.48036   -1037468.5            0   -1031693.8   -2945.2318    2226946.9 
   83200    271.63194   -1037447.9            0   -1031691.2   -3285.5831    2226946.9 
   83300    271.89457   -1037431.5            0   -1031669.3   -3447.4652    2226946.9 
   83400    272.13281   -1037433.3            0   -1031666.1   -3642.2666    2226946.9 
   83500    272.55179   -1037462.6            0   -1031686.5   -3712.3012    2226946.9 
   83600    272.60113   -1037441.7            0   -1031664.5   -3270.4665    2226946.9 
   83700     272.7463   -1037446.8            0   -1031666.5   -2804.7909    2226946.9 
   83800    272.79765   -1037461.7            0   -1031680.4   -2505.6506    2226946.9 
   83900    272.63634   -1037454.2            0   -1031676.2     -2251.78    2226946.9 
   84000    272.50021   -1037463.3            0   -1031688.3   -2164.6384    2226946.9 
   84100    272.26768   -1037458.9            0   -1031688.8   -1923.3869    2226946.9 
   84200    271.72965     -1037461            0   -1031702.3   -1460.8206    2226946.9 
   84300       272.84   -1037469.5            0   -1031687.2   -1171.9604    2226946.9 
   84400    272.14505   -1037461.2            0   -1031693.7   -1151.3324    2226946.9 
   84500    272.19868   -1037466.4            0   -1031697.7   -869.18774    2226946.9 
   84600    272.23439   -1037462.3            0   -1031692.9   -971.11283    2226946.9 
   84700    273.22121   -1037455.8            0   -1031665.4   -1127.0213    2226946.9 
   84800    271.60112   -1037459.9            0   -1031703.9   -1518.6522    2226946.9 
   84900    272.25105   -1037460.6            0   -1031690.8   -2091.5646    2226946.9 
   85000    272.58997   -1037455.3            0   -1031678.3   -2144.9359    2226946.9 
   85100    271.78885   -1037464.9            0   -1031704.9   -2332.0396    2226946.9 
   85200    272.29567   -1037454.8            0   -1031684.1   -2678.1908    2226946.9 
   85300    272.19914   -1037466.9            0   -1031698.2   -2906.7931    2226946.9 
   85400    271.84493     -1037465            0   -1031703.9   -3391.8499    2226946.9 
   85500    272.15208     -1037442            0   -1031674.3   -3660.3842    2226946.9 
   85600    272.51889   -1037439.9            0   -1031664.4   -3679.3149    2226946.9 
   85700     271.8761   -1037454.7            0   -1031692.8   -3749.9988    2226946.9 
   85800    271.80845   -1037431.8            0   -1031671.5   -3326.9021    2226946.9 
   85900    272.31735   -1037452.9            0   -1031681.7    -3063.794    2226946.9 
   86000    271.66583   -1037460.8            0   -1031703.4   -2644.6888    2226946.9 
   86100    271.59817   -1037475.5            0   -1031719.6   -2238.7976    2226946.9 
   86200    272.92024   -1037463.7            0   -1031679.8   -1953.5989    2226946.9 
   86300    271.83479     -1037474            0     -1031713   -1916.4319    2226946.9 
   86400    272.39338   -1037464.3            0   -1031691.5    -1637.641    2226946.9 
   86500      273.822   -1037482.8            0   -1031679.7   -1122.0712    2226946.9 
   86600    271.05915   -1037461.3            0   -1031716.8   -984.88677    2226946.9 
   86700    272.34195   -1037466.5            0   -1031694.8   -800.89705    2226946.9 
   86800    272.62901   -1037436.8            0     -1031659   -677.95125    2226946.9 
   86900    271.84986   -1037466.4            0   -1031705.2   -1018.0691    2226946.9 
   87000     271.8291     -1037454            0   -1031693.1    -1499.864    2226946.9 
   87100    272.21931   -1037440.4            0   -1031671.3   -1944.1341    2226946.9 
   87200    272.27178   -1037458.3            0   -1031688.1   -2316.7325    2226946.9 
   87300    273.42344     -1037484            0   -1031689.4   -2558.3243    2226946.9 
   87400    271.95182   -1037438.5            0   -1031675.1   -2407.6451    2226946.9 
   87500    272.06767   -1037456.7            0   -1031690.8   -2745.2465    2226946.9 
   87600    272.60263   -1037455.7            0   -1031678.5   -3183.3338    2226946.9 
   87700    272.23342   -1037428.6            0   -1031659.2   -3643.0028    2226946.9 
   87800     271.8369     -1037438            0     -1031677    -3584.317    2226946.9 
   87900    271.50488   -1037462.4            0   -1031708.5   -3742.3156    2226946.9 
   88000    272.06672   -1037431.3            0   -1031665.4   -3601.7487    2226946.9 
   88100     272.6605   -1037451.1            0   -1031672.7    -3327.283    2226946.9 
   88200    272.33408   -1037468.8            0   -1031697.2   -2891.8654    2226946.9 
   88300    272.64798   -1037441.9            0   -1031663.7   -2526.7361    2226946.9 
   88400    272.93137   -1037448.6            0   -1031664.4   -2167.4282    2226946.9 
   88500    272.55551   -1037476.8            0   -1031700.6   -1986.8341    2226946.9 
   88600    272.76843   -1037471.8            0     -1031691   -1662.0888    2226946.9 
   88700    273.57547   -1037446.3            0   -1031648.4    -1229.766    2226946.9 
   88800    271.98941   -1037464.3            0   -1031700.1   -877.52309    2226946.9 
   88900    271.83798   -1037475.1            0   -1031714.1   -986.74717    2226946.9 
   89000    272.81055   -1037447.2            0   -1031665.6   -849.59848    2226946.9 
   89100    272.24598   -1037471.7            0     -1031702   -921.12985    2226946.9 
   89200    272.30298   -1037477.1            0   -1031706.2   -1299.4857    2226946.9 
   89300    272.29294   -1037438.6            0   -1031667.9   -1535.8379    2226946.9 
   89400    273.00119   -1037430.8            0   -1031645.1   -2083.8248    2226946.9 
   89500    272.55166   -1037464.8            0   -1031688.6    -2487.986    2226946.9 
   89600    272.28037   -1037452.8            0   -1031682.4   -2677.5423    2226946.9 
   89700    272.30324   -1037434.5            0   -1031663.7   -2961.4082    2226946.9 
   89800    271.80091   -1037450.8            0   -1031690.5   -3086.7863    2226946.9 
   89900    271.65838   -1037435.7            0   -1031678.5   -3402.8052    2226946.9 
   90000    272.08645   -1037439.8            0   -1031673.5   -3518.0379    2226946.9 
   90100    272.20641   -1037439.7            0   -1031670.8   -3466.5273    2226946.9 
   90200    272.22798   -1037439.5            0   -1031670.2   -3581.5134    2226946.9 
   90300    271.58705   -1037461.4            0   -1031705.7   -3135.0865    2226946.9 
   90400    272.14317   -1037467.8            0   -1031700.4   -2916.6561    2226946.9 
   90500    272.43821   -1037446.3            0   -1031672.6   -2445.4634    2226946.9 
   90600    271.46793   -1037466.5            0   -1031713.4   -2135.1724    2226946.9 
   90700    271.77973   -1037473.5            0   -1031713.8   -1992.7338    2226946.9 
   90800     273.1472   -1037469.5            0   -1031680.7   -1996.4639    2226946.9 
   90900    271.48468   -1037446.1            0   -1031692.6   -1612.6973    2226946.9 
   91000    271.34736   -1037477.4            0   -1031726.8   -1295.3555    2226946.9 
   91100    272.26613   -1037452.4            0   -1031682.3    -1055.359    2226946.9 
   91200    272.34798   -1037466.1            0   -1031694.2   -904.78659    2226946.9 
   91300    271.66897   -1037466.6            0   -1031709.1   -906.26434    2226946.9 
   91400    272.55382   -1037468.5            0   -1031692.3   -1386.9678    2226946.9 
   91500    272.54815     -1037463            0   -1031686.9   -1692.4341    2226946.9 
   91600    272.43257   -1037445.8            0   -1031672.2   -1987.7965    2226946.9 
   91700    271.93194   -1037457.9            0   -1031694.9   -2341.4618    2226946.9 
   91800    272.07242   -1037449.8            0   -1031683.8   -2335.1519    2226946.9 
   91900    272.32186   -1037435.3            0     -1031664   -2562.0978    2226946.9 
   92000    273.03495   -1037461.2            0   -1031674.8   -2895.7742    2226946.9 
   92100    271.93324   -1037445.3            0   -1031682.3   -3197.1547    2226946.9 
   92200    271.94826   -1037417.8            0   -1031654.5    -3290.748    2226946.9 
   92300    272.79821   -1037448.6            0   -1031667.2   -3396.0599    2226946.9 
   92400    271.77659   -1037431.8            0   -1031672.1   -3413.4253    2226946.9 
   92500    272.64283   -1037442.9            0   -1031664.8   -2948.7217    2226946.9 
   92600    273.30033     -1037474            0     -1031682   -2653.3087    2226946.9 
   92700    272.39088     -1037456            0   -1031683.3   -2730.6918    2226946.9 
   92800    272.62413   -1037450.1            0   -1031672.4   -2110.9411    2226946.9 
   92900    272.68497     -1037477            0   -1031698.1   -2165.1609    2226946.9 
   93000    272.14649   -1037445.7            0   -1031678.2   -1832.5782    2226946.9 
   93100    272.88309   -1037482.4            0   -1031699.2   -1850.5561    2226946.9 
   93200    272.19303   -1037468.3            0   -1031699.8   -1554.0637    2226946.9 
   93300    272.63728   -1037456.5            0   -1031678.5   -1429.5935    2226946.9 
   93400    271.90293   -1037460.1            0   -1031697.7   -1404.1194    2226946.9 
   93500    271.94858   -1037451.3            0   -1031687.9   -1130.9591    2226946.9 
   93600    272.86579   -1037457.4            0   -1031674.6   -1445.6608    2226946.9 
   93700    272.26685   -1037463.2            0   -1031693.1   -1634.9026    2226946.9 
   93800    271.96287   -1037458.4            0   -1031694.7   -1878.0525    2226946.9 
   93900    272.42571   -1037448.4            0     -1031675     -2393.43    2226946.9 
   94000     272.1799   -1037444.9            0   -1031676.6   -2360.9593    2226946.9 
   94100    271.66844   -1037457.4            0     -1031700   -2528.8621    2226946.9 
   94200    272.93389   -1037465.5            0   -1031681.3   -2329.9177    2226946.9 
   94300     272.1074   -1037454.7            0     -1031688   -2447.9288    2226946.9 
   94400    270.35183   -1037451.1            0   -1031721.5   -2825.4359    2226946.9 
   94500    271.94469   -1037429.3            0     -1031666   -3094.7372    2226946.9 
   94600    272.18358   -1037446.5            0   -1031678.2   -3261.3498    2226946.9 
   94700     271.4572   -1037442.5            0   -1031689.5   -3377.3633    2226946.9 
   94800    272.86438   -1037432.1            0   -1031649.3   -3004.8379    2226946.9 
   94900    272.24718   -1037457.3            0   -1031687.6   -2988.0835    2226946.9 
   95000    272.32558   -1037452.2            0   -1031680.9   -2615.4235    2226946.9 
   95100    272.53149   -1037464.1            0   -1031688.4   -2414.8261    2226946.9 
   95200    272.46621   -1037479.6            0   -1031705.3   -2453.1629    2226946.9 
   95300    272.81423   -1037454.8            0   -1031673.1   -2281.9577    2226946.9 
   95400    272.44753   -1037443.8            0   -1031669.8   -1894.6546    2226946.9 
   95500    272.56336     -1037491            0   -1031714.6   -1658.7591    2226946.9 
   95600    272.71672     -1037448            0   -1031668.3   -1354.4858    2226946.9 
   95700    271.46408   -1037462.5            0   -1031709.4   -1165.6755    2226946.9 
   95800    272.06404   -1037474.4            0   -1031708.6   -1116.6077    2226946.9 
   95900    272.90217   -1037457.9            0   -1031674.3   -1294.7132    2226946.9 
   96000    271.95082   -1037484.7            0   -1031721.3   -1277.8788    2226946.9 
   96100    271.16355   -1037494.9            0   -1031748.2   -1909.6196    2226946.9 
   96200    272.15498     -1037464            0   -1031696.3   -1913.2217    2226946.9 
   96300    272.62617   -1037452.8            0   -1031675.1   -2027.6159    2226946.9 
   96400    272.05916   -1037475.6            0   -1031709.9   -2426.0367    2226946.9 
   96500    272.45778   -1037451.7            0   -1031677.6   -2372.6541    2226946.9 
   96600    272.78287   -1037457.5            0   -1031676.5    -2534.294    2226946.9 
   96700    272.71673   -1037471.4            0   -1031691.7   -2937.0634    2226946.9 
   96800    272.49928   -1037445.2            0   -1031670.1   -3060.0336    2226946.9 
   96900    272.09142   -1037435.4            0     -1031669    -3334.209    2226946.9 
   97000    271.85539   -1037440.7            0   -1031679.3    -3348.204    2226946.9 
   97100    272.40775   -1037447.4            0   -1031674.3    -3385.261    2226946.9 
   97200    272.67112   -1037459.3            0   -1031680.6   -2978.1125    2226946.9 
   97300    271.50738   -1037444.3            0   -1031690.2   -2764.5479    2226946.9 
   97400    271.82567   -1037459.8            0     -1031699   -2474.4314    2226946.9 
   97500    273.23577   -1037461.9            0   -1031671.2   -2429.0661    2226946.9 
   97600    271.96964   -1037457.5            0   -1031693.6   -2266.9585    2226946.9 
   97700    272.21478   -1037455.7            0   -1031686.7   -2067.1757    2226946.9 
   97800     272.4026   -1037463.9            0   -1031690.9   -1748.7736    2226946.9 
   97900    271.64169   -1037471.2            0   -1031714.3   -1204.1298    2226946.9 
   98000    272.74367   -1037458.4            0   -1031678.2   -964.88692    2226946.9 
   98100     272.2113   -1037462.2            0   -1031693.3   -845.83268    2226946.9 
   98200    273.05411   -1037474.3            0   -1031687.5   -1306.1996    2226946.9 
   98300    272.74856   -1037472.1            0   -1031691.8   -1578.2469    2226946.9 
   98400    272.60384   -1037449.8            0   -1031672.5   -1855.5482    2226946.9 
   98500    272.65848     -1037471            0   -1031692.6   -1879.2542    2226946.9 
   98600    272.09479   -1037464.9            0   -1031698.4   -1959.6007    2226946.9 
   98700    272.29207   -1037452.1            0   -1031681.5   -2215.6885    2226946.9 
   98800    271.36446   -1037463.3            0   -1031712.3   -2520.0765    2226946.9 
   98900    272.75722   -1037463.7            0   -1031683.2   -2950.0893    2226946.9 
   99000    272.70114   -1037444.9            0   -1031665.6   -3191.5713    2226946.9 
   99100    271.24835   -1037436.7            0   -1031688.2   -3584.0213    2226946.9 
   99200    272.42514   -1037442.9            0   -1031669.4   -3510.5045    2226946.9 
   99300     272.7164     -1037448            0   -1031668.3   -3146.9062    2226946.9 
   99400    271.50648   -1037441.3            0   -1031687.3   -3062.1932    2226946.9 
   99500    272.12667   -1037456.4            0   -1031689.3   -2862.0955    2226946.9 
   99600    272.39115   -1037442.5            0   -1031669.7   -2656.0696    2226946.9 
   99700    271.23917   -1037439.7            0   -1031691.4   -2503.3111    2226946.9 
   99800    271.50177   -1037453.8            0   -1031699.9   -2210.3814    2226946.9 
   99900    271.85607     -1037447            0   -1031685.6   -2011.8435    2226946.9 
  100000    272.31859   -1037448.6            0   -1031677.4   -1756.1554    2226946.9 
Loop time of 7866.24 on 32 procs for 100000 steps with 163956 atoms

Performance: 1.098 ns/day, 21.851 hours/ns, 12.713 timesteps/s
50.4% CPU use with 32 MPI tasks x no OpenMP threads

MPI task timing breakdown:
Section |  min time  |  avg time  |  max time  |%varavg| %total
---------------------------------------------------------------
Pair    | 0.24452    | 2855.6     | 7515.6     |2631.0 | 36.30
Neigh   | 0.03792    | 18.372     | 48.757     | 210.2 |  0.23
Comm    | 1.6405     | 1115       | 5246.7     |4782.9 | 14.17
Output  | 18.224     | 18.3       | 18.359     |   0.7 |  0.23
Modify  | 133.91     | 3820.3     | 7793.4     |3146.5 | 48.57
Other   |            | 38.59      |            |       |  0.49

Nlocal:    5123.62 ave 10250 max 0 min
Histogram: 2 0 0 0 14 14 0 0 0 2
Nghost:    3534.41 ave 4434 max 0 min
Histogram: 2 0 0 0 0 0 4 4 10 12
Neighs:    0 ave 0 max 0 min
Histogram: 32 0 0 0 0 0 0 0 0 0
FullNghs:  249643 ave 804341 max 0 min
Histogram: 2 0 14 14 0 0 0 0 0 2

Total # of neighbors = 7988590
Ave neighs/atom = 48.724
Neighbor list builds = 1000
Dangerous builds = 0

print "Complete equilibration process"
Complete equilibration process

unfix 1
unfix 2
unfix 3
unfix 4
uncompute myCTtemp
uncompute myWPtemp

######################################
# DEFORMATION

# move the tool to closer

#displace_atoms gpCTall move -4.9 0 0

reset_timestep	0
timestep 0.0001

compute myCTtemp gpCTmob temp/partial 0 1 1
compute myWPtemp gpWPmob temp/partial 0 1 1
compute myCTTStemp gpCTtsbd temp
compute myWPTStemp gpWPtsbd temp/partial 0 1 1

# rescale the temperature of thermostatic boundaries to 300 K

fix 1 gpWPtsbd nvt temp 300.0 300.0 0.005 #iso 1.0 1.0 0.5
fix_modify 1 temp myWPTStemp
WARNING: Temperature for fix modify is not for group all (../fix_nh.cpp:1389)
fix 2 gpCTtsbd nvt temp 300.0 300.0 0.005 #iso 1.0 1.0 0.5
fix_modify 2 temp myCTTStemp
WARNING: Temperature for fix modify is not for group all (../fix_nh.cpp:1389)

fix 3 gpWPbd move linear 0 0 0
fix 4 gpCTbd move linear -1.0 0 0 units box  # cutting speed = v * 100 (m s^-1 in the x-direction)

group mobile union gpCTmob gpWPmob
131554 atoms in group mobile

fix 5 mobile nve

compute ke all ke/atom
fix 12 all ave/atom 10 50 500 c_ke

thermo 	500
thermo_style custom step c_myCTtemp c_myWPtemp press etotal fmax fnorm


# Output strain and stress info to file
# for units metal, pressure is in [bars] = 100 [kPa] = 1/10000 [GPa]
# p2, p3, p4 are in GPa

## Use cfg for AtomEye
#dump 		1 all cfg 2000 dump.cutsic_*.cfg id type xs ys zs c_csym


# Display thermo
dump	 0dumpCSP all custom  500 dump.cutsic.*.lammpstrj id type mol x y z vx vy vz f_12
dump_modify 0dumpCSP element C Si C

#write_restart cut_sic.restart.0000
#restart 1000 cut_sic.restart
run		1000
WARNING: One or more atoms are time integrated more than once (../modify.cpp:271)
Memory usage per processor = 9.23609 Mbytes
Step c_myCTtemp c_myWPtemp Press TotEng Fmax Fnorm 
       0    303.42344    307.22332   -1756.1554   -1031677.4    6.9451743    710.99711 
     500     306.9917    308.13638   -1285.5947   -1031516.9    6.8231902    713.57293 
    1000    296.25259    309.54061   -813.24075   -1031487.2    6.9092231    714.67635 
Loop time of 78.7096 on 32 procs for 1000 steps with 163956 atoms

Performance: 0.110 ns/day, 218.638 hours/ns, 12.705 timesteps/s
50.5% CPU use with 32 MPI tasks x no OpenMP threads

MPI task timing breakdown:
Section |  min time  |  avg time  |  max time  |%varavg| %total
---------------------------------------------------------------
Pair    | 0.0022366  | 28.538     | 75.419     | 263.0 | 36.26
Neigh   | 0.00040603 | 0.18291    | 0.49276    |  20.9 |  0.23
Comm    | 0.016328   | 10.939     | 52.611     | 485.8 | 13.90
Output  | 0.37042    | 0.37066    | 0.37109    |   0.0 |  0.47
Modify  | 0.94059    | 38.264     | 77.738     | 316.7 | 48.61
Other   |            | 0.4151     |            |       |  0.53

Nlocal:    5123.62 ave 10248 max 0 min
Histogram: 2 0 0 0 14 14 0 0 0 2
Nghost:    3536.06 ave 4436 max 0 min
Histogram: 2 0 0 0 0 0 4 4 10 12
Neighs:    0 ave 0 max 0 min
Histogram: 32 0 0 0 0 0 0 0 0 0
FullNghs:  249656 ave 804482 max 0 min
Histogram: 2 0 14 14 0 0 0 0 0 2

Total # of neighbors = 7989006
Ave neighs/atom = 48.7265
Neighbor list builds = 10
Dangerous builds = 0

######################################
# SIMULATION DONE
print "All done" 
All done
Total wall time: 2:12:25
